# This file is created by imo_withASE.py SR 01/04/2022 - and this is not a joke !
7168 atoms 
2048 bonds 
3584 angles 
7 atom types 
2 bond types 
2 angle types 
-108.0 108.0 xlo xhi 
-108.0 108.0 ylo yhi 
-4.225 4.225 zlo zhi 
0.0 0.0 0.0 xy xz yz 

 Masses 

1 26.9815385   #Al
2 1.008   #Hin
3 1.008   #Hout
4 15.999   #Obr
5 15.999   #Oin
6 15.999   #Oout
7 28.085   #Si

 Atoms  # full 

1 1 1 1.575 -9.98172 1.74648 -5.62953 
2 2 1 1.575 -9.83842 1.65755 0.0679583 
3 3 1 1.575 -9.86644 -0.705635 -4.14483 
4 4 1 1.575 -9.89175 -0.827665 -1.30417 
5 5 1 1.575 -9.57073 4.0334 -4.2247 
6 6 1 1.575 -9.54471 4.23758 -1.28389 
7 7 1 1.575 -9.79975 -3.20011 -5.41228 
8 8 1 1.575 -9.86159 -3.38732 0.0305237 
9 9 1 1.575 -8.43224 6.50295 -5.60366 
10 10 1 1.575 -8.49682 6.50955 0.0904958 
11 11 1 1.575 -8.78767 -5.77165 -4.11728 
12 12 1 1.575 -8.85282 -5.69243 -1.28434 
13 13 1 1.575 -6.73058 8.36359 -4.17718 
14 14 1 1.575 -6.54163 8.51487 -1.2382 
15 15 1 1.575 -7.06198 -7.43108 -5.53152 
16 16 1 1.575 -7.16862 -7.65554 0.136987 
17 17 1 1.575 -4.59895 9.74985 -5.62171 
18 18 1 1.575 -4.41306 9.84905 0.0509466 
19 19 1 1.575 -5.29962 -8.99446 -4.20598 
20 20 1 1.575 -5.22959 -8.95096 -1.34745 
21 21 1 1.575 -2.20831 10.8695 -4.19206 
22 22 1 1.575 -1.99537 10.7744 -1.41818 
23 23 1 1.575 -2.92672 -10.0785 -5.57208 
24 24 1 1.575 -3.05406 -10.3052 0.0784587 
25 25 1 1.575 0.272541 11.2572 -5.66299 
26 26 1 1.575 0.516574 11.3189 0.00906172 
27 27 1 1.575 -0.500178 -10.8941 -4.15826 
28 28 1 1.575 -0.488037 -10.8336 -1.19335 
29 29 1 1.575 2.93711 11.2056 -4.20383 
30 30 1 1.575 2.92456 10.9121 -1.37633 
31 31 1 1.575 2.10589 -10.7609 -5.62467 
32 32 1 1.575 2.14986 -10.858 0.0439594 
33 33 1 1.575 5.24146 10.4802 -5.61016 
34 34 1 1.575 5.26563 10.2543 0.0439852 
35 35 1 1.575 4.46558 -10.077 -4.24038 
36 36 1 1.575 4.50963 -9.83949 -1.38016 
37 37 1 1.575 7.58403 9.44135 -4.23988 
38 38 1 1.575 7.4765 9.49245 -1.45057 
39 39 1 1.575 6.81111 -9.09826 -5.56037 
40 40 1 1.575 6.79783 -9.01989 -0.0768558 
41 41 1 1.575 9.75317 8.18612 -5.56421 
42 42 1 1.575 9.69492 8.14343 -0.0625633 
43 43 1 1.575 9.08774 -7.82967 -4.21584 
44 44 1 1.575 9.11283 -7.98656 -1.30064 
45 45 1 1.575 11.4083 6.32334 -4.18671 
46 46 1 1.575 11.6481 6.27344 -1.25047 
47 47 1 1.575 11.1312 -6.2173 -5.44129 
48 48 1 1.575 10.9843 -6.13004 0.113283 
49 49 1 1.575 12.6798 3.58201 -5.5305 
50 50 1 1.575 12.6719 3.83 -0.0382515 
51 51 1 1.575 12.1568 -3.6919 -4.08792 
52 52 1 1.575 12.0859 -3.78999 -1.19101 
53 53 1 1.575 12.5519 1.1562 -4.19285 
54 54 1 1.575 12.6917 1.22576 -1.36901 
55 55 1 1.575 12.5067 -1.23531 -5.57422 
56 56 1 1.575 12.4178 -1.30945 0.0878653 
57 57 2 0.425 -6.01192 2.55039 -3.01362 
58 58 2 0.425 -6.36627 -1.64697 1.59843 
59 59 2 0.425 -6.06896 2.48134 1.70567 
60 60 2 0.425 -5.96046 -1.80766 -2.81613 
61 61 2 0.425 -4.86149 5.64111 -2.73003 
62 62 2 0.425 -5.39771 -3.92525 1.16531 
63 63 2 0.425 -4.77821 5.1204 1.1599 
64 64 2 0.425 -5.56708 -4.16175 -2.76016 
65 65 2 0.425 -2.17521 6.64351 -2.36211 
66 66 2 0.425 -2.38059 -6.13672 1.41058 
67 67 2 0.425 -2.01128 7.12967 2.03669 
68 68 2 0.425 -2.32635 -6.2828 -2.67426 
69 69 2 0.425 1.58045 7.5299 -3.15445 
70 70 2 0.425 0.692816 -7.0834 1.78769 
71 71 2 0.425 1.2713 7.63851 1.58737 
72 72 2 0.425 0.20672 -7.34814 -2.2587 
73 73 2 0.425 5.05542 6.67041 -2.94482 
74 74 2 0.425 3.47148 -6.31375 0.82665 
75 75 2 0.425 5.77692 5.95962 0.9259 
76 76 2 0.425 4.83005 -5.83938 -3.62442 
77 77 2 0.425 7.90421 4.77757 -2.34531 
78 78 2 0.425 7.53038 -4.41697 1.72489 
79 79 2 0.425 8.10891 4.53115 1.8219 
80 80 2 0.425 7.4484 -4.77561 -2.49214 
81 81 2 0.425 9.04798 2.35664 -3.5689 
82 82 2 0.425 8.79694 -2.28755 1.87658 
83 83 2 0.425 8.94154 1.85876 0.919499 
84 84 2 0.425 8.88341 -2.10687 -2.93798 
85 85 3 0.425 -11.961 0.42364 -4.76559 
86 86 3 0.425 -11.7389 3.33804 -0.557507 
87 87 3 0.425 -12.0343 -2.2335 -0.574921 
88 88 3 0.425 -10.9588 6.19717 -4.62669 
89 89 3 0.425 -11.5992 -4.97147 -4.56786 
90 90 3 0.425 -8.85373 9.74773 -0.575122 
91 91 3 0.425 -9.42303 -7.00823 0.924998 
92 92 3 0.425 -5.67016 10.4024 -3.36754 
93 93 3 0.425 -7.56603 -9.89057 -4.7761 
94 94 3 0.425 -4.01254 12.2622 -0.405339 
95 95 3 0.425 -5.39331 -11.3055 -0.584458 
96 96 3 0.425 -1.20861 13.2745 -4.69486 
97 97 3 0.425 -2.47659 -12.3972 -4.59697 
98 98 3 0.425 2.08118 13.1948 -0.745066 
99 99 3 0.425 0.314761 -13.1704 -0.200933 
100 100 3 0.425 5.27012 11.9992 -3.58154 
101 101 3 0.425 3.69375 -12.6027 -4.83775 
102 102 3 0.425 7.32141 11.733 -0.399842 
103 103 3 0.425 6.22914 -11.4234 -0.746403 
104 104 3 0.425 10.0365 10.5687 -4.65989 
105 105 3 0.425 8.74204 -10.3952 -4.6202 
106 106 3 0.425 12.1187 7.82562 0.822962 
107 107 3 0.425 11.3537 -9.01352 -0.491122 
108 108 3 0.425 14.5548 4.9835 -4.3463 
109 109 3 0.425 13.5117 -6.06798 -4.52593 
110 110 3 0.425 14.7845 2.18416 -0.561775 
111 111 3 0.425 14.3608 -2.88561 -0.444021 
112 112 3 0.425 14.6413 -0.278704 -4.54097 
113 113 3 0.425 -11.088 0.0542466 1.54383 
114 114 3 0.425 -11.0765 2.62251 -2.71817 
115 115 3 0.425 -11.2902 -2.34447 -2.61531 
116 116 3 0.425 -10.4364 5.95169 1.45918 
117 117 3 0.425 -10.8632 -5.14015 1.446 
118 118 3 0.425 -8.79671 8.5329 -2.81608 
119 119 3 0.425 -9.10375 -7.7583 -2.52669 
120 120 3 0.425 -6.64107 9.78419 1.17496 
121 121 3 0.425 -6.44296 -9.64419 1.44201 
122 122 3 0.425 -3.98338 11.3447 -2.57131 
123 123 3 0.425 -4.364 -10.8867 -2.73616 
124 124 3 0.425 -1.40587 12.3181 1.20547 
125 125 3 0.425 -1.7927 -12.0148 1.35338 
126 126 3 0.425 1.21514 12.5113 -2.98464 
127 127 3 0.425 0.840993 -12.3161 -2.62529 
128 128 3 0.425 4.07635 12.1988 1.26359 
129 129 3 0.425 3.8759 -11.7824 1.44964 
130 130 3 0.425 8.04134 11.6311 -2.64018 
131 131 3 0.425 4.39756 -11.8916 -2.53776 
132 132 3 0.425 8.99555 10.0744 1.57349 
133 133 3 0.425 8.80977 -9.43335 1.40289 
134 134 3 0.425 12.5419 8.22231 -2.62996 
135 135 3 0.425 11.1014 -8.00253 -2.78149 
136 136 3 0.425 13.7152 5.44112 1.53468 
137 137 3 0.425 13.1334 -5.79824 1.3372 
138 138 3 0.425 13.8303 2.84188 -2.97 
139 139 3 0.425 13.7285 -2.39601 -2.73624 
140 140 3 0.425 13.7155 0.309511 1.44069 
141 141 3 0.425 -12.0839 0.603759 -0.92063 
142 142 3 0.425 -11.996 3.4431 -5.22437 
143 143 3 0.425 -12.0283 -1.9037 -5.16242 
144 144 3 0.425 -10.2141 6.20203 -2.30991 
145 145 3 0.425 -10.9666 -4.4867 -2.17673 
146 146 3 0.425 -8.94745 9.09716 -5.18254 
147 147 3 0.425 -9.80348 -7.94515 -5.27126 
148 148 3 0.425 -6.48218 11.0917 -1.2846 
149 149 3 0.425 -7.21436 -10.1186 -0.669383 
150 150 3 0.425 -3.48032 11.8755 -6.2661 
151 151 3 0.425 -4.83123 -11.3988 -4.8577 
152 152 3 0.425 -0.877983 13.108 -0.967 
153 153 3 0.425 -2.59081 -11.4101 -2.21597 
154 154 3 0.425 1.7406 13.3864 -5.15166 
155 155 3 0.425 0.785313 -13.0443 -5.16464 
156 156 3 0.425 4.57546 12.7395 -0.908391 
157 157 3 0.425 3.54127 -12.9169 -0.813313 
158 158 3 0.425 7.2515 11.8069 -5.21866 
159 159 3 0.425 6.34176 -11.5941 -4.72997 
160 160 3 0.425 9.7272 10.6251 -0.775818 
161 161 3 0.425 8.82788 -10.5205 -0.86031 
162 162 3 0.425 12.1365 8.79261 -4.95087 
163 163 3 0.425 11.3821 -8.71838 -5.08519 
164 164 3 0.425 13.4217 4.97464 -2.15646 
165 165 3 0.425 12.5742 -6.1144 -1.96018 
166 166 3 0.425 14.7851 2.10703 -5.26579 
167 167 3 0.425 14.4819 -3.15009 -4.84664 
168 168 3 0.425 14.6213 -0.560385 -0.961933 
169 169 4 -1.05 -8.83489 2.40024 -4.04065 
170 170 4 -1.05 -8.7173 2.19148 -1.2963 
171 171 4 -1.05 -8.87739 2.47274 1.54754 
172 172 4 -1.05 -9.03054 0.00806677 -5.75096 
173 173 4 -1.05 -8.8232 0.178118 -2.83184 
174 174 4 -1.05 -9.04475 -0.116426 0.183687 
175 175 4 -1.05 -8.37393 4.56159 -5.73482 
176 176 4 -1.05 -8.25663 4.62069 -2.73348 
177 177 4 -1.05 -8.4593 4.5481 0.165623 
178 178 4 -1.05 -8.77139 -2.26544 -4.02638 
179 179 4 -1.05 -8.76667 -2.27945 -1.45628 
180 180 4 -1.05 -8.87811 -2.24616 1.49649 
181 181 4 -1.05 -7.27783 6.48965 -4.0191 
182 182 4 -1.05 -7.45303 6.69812 -1.50957 
183 183 4 -1.05 -7.04509 6.565 1.271 
184 184 4 -1.05 -8.52311 -4.63775 -5.66419 
185 185 4 -1.05 -8.34628 -4.40374 -2.77675 
186 186 4 -1.05 -8.37744 -4.50166 0.221414 
187 187 4 -1.05 -5.53835 8.04793 -5.7346 
188 188 4 -1.05 -5.368 8.03867 -2.83022 
189 189 4 -1.05 -5.46928 8.12724 0.0803575 
190 190 4 -1.05 -7.02628 -6.30525 -3.98056 
191 191 4 -1.05 -7.0341 -6.35985 -1.48105 
192 192 4 -1.05 -6.88809 -6.16268 1.50147 
193 193 4 -1.05 -3.41095 9.15378 -4.04924 
194 194 4 -1.05 -3.41933 9.19455 -1.53475 
195 195 4 -1.05 -3.3895 9.14469 1.37865 
196 196 4 -1.05 -5.10411 -7.73851 -5.68838 
197 197 4 -1.05 -5.39983 -7.72966 -2.78457 
198 198 4 -1.05 -5.15714 -7.76608 0.0929196 
199 199 4 -1.05 -1.32671 10.2191 -5.83415 
200 200 4 -1.05 -0.984068 9.91591 -2.81718 
201 201 4 -1.05 -1.31966 9.94904 0.137361 
202 202 4 -1.05 -3.24771 -8.83003 -3.99064 
203 203 4 -1.05 -3.22062 -9.01022 -1.4802 
204 204 4 -1.05 -3.28836 -8.90216 1.39825 
205 205 4 -1.05 1.16806 10.2206 -4.07645 
206 206 4 -1.05 1.24466 10.1637 -1.4937 
207 207 4 -1.05 1.18221 10.2074 1.49998 
208 208 4 -1.05 -1.0295 -9.73351 -5.63309 
209 209 4 -1.05 -1.16327 -9.64568 -2.72152 
210 210 4 -1.05 -1.03137 -9.74863 0.25083 
211 211 4 -1.05 3.4431 9.98748 -5.70889 
212 212 4 -1.05 3.49929 9.87527 -2.86058 
213 213 4 -1.05 3.40941 9.79772 0.25092 
214 214 4 -1.05 1.21626 -9.88444 -4.05445 
215 215 4 -1.05 1.23567 -10.0546 -1.48459 
216 216 4 -1.05 1.13691 -9.81807 1.45938 
217 217 4 -1.05 5.69992 9.23389 -4.08042 
218 218 4 -1.05 5.57243 9.21461 -1.51423 
219 219 4 -1.05 5.67656 9.03074 1.39057 
220 220 4 -1.05 3.49188 -9.40401 -5.74731 
221 221 4 -1.05 3.29601 -9.14176 -2.76676 
222 222 4 -1.05 3.5891 -9.42088 0.145129 
223 223 4 -1.05 7.72316 8.27144 -5.7187 
224 224 4 -1.05 7.83416 8.10383 -2.77679 
225 225 4 -1.05 7.75443 8.23286 0.124903 
226 226 4 -1.05 5.66852 -8.41399 -4.02095 
227 227 4 -1.05 5.71668 -8.4307 -1.53705 
228 228 4 -1.05 5.54946 -8.46409 1.61132 
229 229 4 -1.05 9.66504 6.89637 -4.10258 
230 230 4 -1.05 9.60117 6.86759 -1.50031 
231 231 4 -1.05 9.81541 6.70432 1.51476 
232 232 4 -1.05 7.99233 -7.50031 -5.71826 
233 233 4 -1.05 7.74055 -7.3917 -2.7668 
234 234 4 -1.05 7.72205 -7.44562 0.187782 
235 235 4 -1.05 11.3082 5.12849 -5.64034 
236 236 4 -1.05 11.1059 4.94875 -2.76474 
237 237 4 -1.05 11.2558 5.03141 0.27436 
238 238 4 -1.05 9.75984 -6.02606 -4.02512 
239 239 4 -1.05 9.7597 -6.1873 -1.48786 
240 240 4 -1.05 9.60838 -6.13202 1.33095 
241 241 4 -1.05 11.5482 2.84906 -4.10572 
242 242 4 -1.05 11.6265 2.86663 -1.50595 
243 243 4 -1.05 11.6716 2.7552 1.52292 
244 244 4 -1.05 11.1992 -4.29279 -5.64031 
245 245 4 -1.05 11.0268 -4.30861 -2.6609 
246 246 4 -1.05 10.9206 -4.17542 0.205215 
247 247 4 -1.05 11.6276 0.436481 -5.71621 
248 248 4 -1.05 11.3785 0.352005 -2.79492 
249 249 4 -1.05 11.626 0.555767 0.168301 
250 250 4 -1.05 11.4306 -1.94353 -3.99964 
251 251 4 -1.05 11.4008 -1.81748 -1.4194 
252 252 4 -1.05 11.4215 -2.07531 1.60238 
253 253 5 -0.95 -6.67296 1.73808 -2.94745 
254 254 5 -0.95 -6.80913 -0.673839 1.58965 
255 255 5 -0.95 -6.45689 3.38936 1.45531 
256 256 5 -0.95 -6.46286 -2.6957 -2.70177 
257 257 5 -0.95 -5.71591 5.0925 -2.44878 
258 258 5 -0.95 -6.30868 -3.69173 1.52923 
259 259 5 -0.95 -4.56025 6.09157 1.33174 
260 260 5 -0.95 -5.15752 -5.11469 -2.63934 
261 261 5 -0.95 -3.12518 6.8717 -2.70665 
262 262 5 -0.95 -3.42195 -6.25412 1.29887 
263 263 5 -0.95 -1.30558 7.80027 1.6704 
264 264 5 -0.95 -1.7516 -7.17089 -2.69038 
265 265 5 -0.95 0.715545 8.01697 -2.93548 
266 266 5 -0.95 -0.16939 -7.58742 1.58604 
267 267 5 -0.95 2.26242 7.89992 1.60544 
268 268 5 -0.95 1.1248 -7.72872 -2.4835 
269 269 5 -0.95 4.31433 7.40997 -2.83811 
270 270 5 -0.95 3.28318 -7.11089 1.45445 
271 271 5 -0.95 6.36182 6.50354 1.60602 
272 272 5 -0.95 5.45032 -6.12357 -2.87603 
273 273 5 -0.95 7.7488 5.59637 -2.90181 
274 274 5 -0.95 7.13369 -5.347 1.5596 
275 275 5 -0.95 9.08764 4.18959 1.53894 
276 276 5 -0.95 8.39007 -4.39983 -2.70165 
277 277 5 -0.95 9.33849 3.07434 -2.87723 
278 278 5 -0.95 9.10828 -3.22638 1.83611 
279 279 5 -0.95 9.50224 1.24629 1.49219 
280 280 5 -0.95 9.31486 -1.16581 -2.80812 
281 281 6 -0.95 -11.0958 0.786527 -4.35728 
282 282 6 -0.95 -10.8433 3.41264 -0.0688497 
283 283 6 -0.95 -11.1497 -1.90116 -0.174146 
284 284 6 -0.95 -9.98901 6.02757 -4.23603 
285 285 6 -0.95 -10.7932 -4.35782 -4.25127 
286 286 6 -0.95 -8.09383 9.27913 -0.0359899 
287 287 6 -0.95 -9.05368 -7.19354 -0.00588932 
288 288 6 -0.95 -5.93369 10.1226 -4.35187 
289 289 6 -0.95 -7.18642 -8.97118 -4.39707 
290 290 6 -0.95 -3.4966 11.4924 0.0365769 
291 291 6 -0.95 -4.97498 -10.4669 -0.166411 
292 292 6 -0.95 -0.911377 12.317 -4.40806 
293 293 6 -0.95 -2.56584 -11.4484 -4.18784 
294 294 6 -0.95 2.15092 12.3397 -0.161355 
295 295 6 -0.95 0.333013 -12.163 -0.0544041 
296 296 6 -0.95 4.69545 11.9354 -4.44829 
297 297 6 -0.95 3.1605 -11.7724 -4.51254 
298 298 6 -0.95 7.12053 10.7869 -0.0901123 
299 299 6 -0.95 5.78686 -10.6514 -0.195973 
300 300 6 -0.95 9.55274 9.69876 -4.35096 
301 301 6 -0.95 8.20097 -9.58112 -4.29349 
302 302 6 -0.95 11.7071 7.87338 -0.117955 
303 303 6 -0.95 10.6099 -8.37488 -0.159743 
304 304 6 -0.95 13.6949 4.51387 -4.01265 
305 305 6 -0.95 12.5409 -6.06379 -4.1762 
306 306 6 -0.95 13.8214 2.12439 -0.145349 
307 307 6 -0.95 13.3673 -3.00484 -0.112954 
308 308 6 -0.95 13.6543 -0.477885 -4.18658 
309 309 6 -0.95 -11.1134 1.0507 1.44682 
310 310 6 -0.95 -10.7817 3.61842 -2.72292 
311 311 6 -0.95 -11.0015 -1.34013 -2.72611 
312 312 6 -0.95 -9.6845 6.63658 1.49336 
313 313 6 -0.95 -10.8391 -4.11433 1.42874 
314 314 6 -0.95 -7.87795 9.01674 -2.76479 
315 315 6 -0.95 -9.49607 -6.84732 -2.67692 
316 316 6 -0.95 -5.72702 10.2979 1.30415 
317 317 6 -0.95 -7.21334 -8.92918 1.4724 
318 318 6 -0.95 -2.99748 11.5706 -2.69615 
319 319 6 -0.95 -5.21848 -10.3291 -2.72456 
320 320 6 -0.95 -0.406697 12.3464 1.31718 
321 321 6 -0.95 -2.73144 -11.6204 1.50422 
322 322 6 -0.95 2.24934 12.449 -2.95133 
323 323 6 -0.95 -0.165901 -12.115 -2.70253 
324 324 6 -0.95 5.00058 11.7545 1.29126 
325 325 6 -0.95 2.84804 -11.8433 1.43651 
326 326 6 -0.95 7.43128 10.782 -2.75635 
327 327 6 -0.95 4.96363 -11.0548 -2.72966 
328 328 6 -0.95 9.82007 9.42743 1.49226 
329 329 6 -0.95 7.82518 -9.77087 1.4689 
330 330 6 -0.95 12.3835 7.21489 -2.76619 
331 331 6 -0.95 10.2079 -8.51942 -2.76935 
332 332 6 -0.95 13.7008 4.42662 1.4456 
333 333 6 -0.95 12.2854 -6.41168 1.43534 
334 334 6 -0.95 13.6764 1.86105 -2.8504 
335 335 6 -0.95 13.3749 -3.34392 -2.71619 
336 336 6 -0.95 13.6552 -0.724978 1.46781 
337 337 6 -0.95 -11.0803 0.821055 -1.22097 
338 338 6 -0.95 -10.9984 3.4601 -5.37867 
339 339 6 -0.95 -11.0521 -1.67698 -5.40105 
340 340 6 -0.95 -10.1244 5.90607 -1.35319 
341 341 6 -0.95 -10.5165 -4.71265 -1.24439 
342 342 6 -0.95 -8.15822 8.46216 -5.38944 
343 343 6 -0.95 -9.13164 -7.19081 -5.46574 
344 344 6 -0.95 -5.74836 10.3823 -1.45456 
345 345 6 -0.95 -7.13797 -9.18031 -1.13107 
346 346 6 -0.95 -3.70244 11.3596 -5.41442 
347 347 6 -0.95 -4.79877 -10.4963 -5.40043 
348 348 6 -0.95 -0.638102 12.1744 -1.3154 
349 349 6 -0.95 -2.33045 -11.5355 -1.16291 
350 350 6 -0.95 1.8005 12.4215 -5.50385 
351 351 6 -0.95 0.530658 -12.0707 -5.34642 
352 352 6 -0.95 4.61499 11.7931 -1.30594 
353 353 6 -0.95 3.07758 -12.0564 -1.17767 
354 354 6 -0.95 7.0844 10.8216 -5.55046 
355 355 6 -0.95 5.82116 -10.8341 -5.27253 
356 356 6 -0.95 9.48949 9.68098 -1.16907 
357 357 6 -0.95 8.26596 -9.68102 -1.15448 
358 358 6 -0.95 11.7666 7.90357 -5.36668 
359 359 6 -0.95 10.7404 -8.05555 -5.43287 
360 360 6 -0.95 13.2293 5.24143 -1.16436 
361 361 6 -0.95 12.5884 -5.70287 -1.01033 
362 362 6 -0.95 13.8054 1.99578 -5.49366 
363 363 6 -0.95 13.5655 -3.16089 -5.29037 
364 364 6 -0.95 13.6058 -0.477855 -1.19623 
365 365 7 2.1 -8.19641 1.68026 -2.73323 
366 366 7 2.1 -8.40818 -0.728196 1.4693 
367 367 7 2.1 -8.00846 3.72883 1.49786 
368 368 7 2.1 -8.01779 -2.87045 -2.71766 
369 369 7 2.1 -7.13001 5.65696 -2.71269 
370 370 7 2.1 -7.51087 -4.66347 1.52891 
371 371 7 2.1 -5.64582 7.19399 1.33013 
372 372 7 2.1 -6.12056 -6.36734 -2.70319 
373 373 7 2.1 -3.82699 8.2825 -2.75968 
374 374 7 2.1 -4.25235 -7.61431 1.37484 
375 375 7 2.1 -1.7688 9.25319 1.43774 
376 376 7 2.1 -2.3433 -8.64691 -2.74868 
377 377 7 2.1 0.576314 9.5506 -2.82311 
378 378 7 2.1 -0.302052 -9.15791 1.55856 
379 379 7 2.1 2.57693 9.46041 1.52003 
380 380 7 2.1 1.68265 -9.12017 -2.71507 
381 381 7 2.1 4.73616 8.87001 -2.81716 
382 382 7 2.1 3.9994 -8.53207 1.50322 
383 383 7 2.1 6.81647 7.98064 1.50509 
384 384 7 2.1 6.13469 -7.55525 -2.80782 
385 385 7 2.1 8.71077 6.86126 -2.82207 
386 386 7 2.1 8.0877 -6.52965 1.4599 
387 387 7 2.1 10.3228 5.16143 1.52326 
388 388 7 2.1 9.73876 -5.2238 -2.67639 
389 389 7 2.1 10.8918 3.40551 -2.81216 
390 390 7 2.1 10.6564 -3.49032 1.61986 
391 391 7 2.1 11.1051 1.29042 1.45901 
392 392 7 2.1 10.8657 -1.11412 -2.71305 
393 393 1 1.575 -36.7666 -44.4625 -4.01401 
394 394 1 1.575 -36.7236 -44.4873 1.67237 
395 395 1 1.575 -36.8378 -46.919 -2.67087 
396 396 1 1.575 -36.58 -46.8946 0.172105 
397 397 1 1.575 -36.4504 -41.9329 -2.59199 
398 398 1 1.575 -36.4607 -41.9206 0.362557 
399 399 1 1.575 -35.9373 -49.5028 -4.06778 
400 400 1 1.575 -35.9287 -49.555 1.54499 
401 401 1 1.575 -35.4398 -39.4165 -3.83909 
402 402 1 1.575 -35.423 -39.3762 1.56 
403 403 1 1.575 -34.6592 -51.7582 -2.62704 
404 404 1 1.575 -34.6905 -51.8965 0.186495 
405 405 1 1.575 -33.736 -37.4532 -2.59302 
406 406 1 1.575 -33.7522 -37.4206 0.325372 
407 407 1 1.575 -32.9623 -53.6454 -4.03058 
408 408 1 1.575 -32.8864 -53.7972 1.59823 
409 409 1 1.575 -31.6623 -35.9131 -3.97763 
410 410 1 1.575 -31.7051 -35.8732 1.63316 
411 411 1 1.575 -30.8916 -55.1843 -2.72052 
412 412 1 1.575 -30.8562 -55.2407 0.179769 
413 413 1 1.575 -29.5704 -34.5016 -2.52814 
414 414 1 1.575 -29.4998 -34.2477 0.352376 
415 415 1 1.575 -28.3909 -56.0207 -4.03008 
416 416 1 1.575 -28.4436 -55.9887 1.56409 
417 417 1 1.575 -27.1425 -33.1711 -3.77706 
418 418 1 1.575 -27.2867 -33.3984 1.7841 
419 419 1 1.575 -25.7733 -56.3348 -2.76919 
420 420 1 1.575 -25.9164 -56.4988 0.2053 
421 421 1 1.575 -24.597 -32.9702 -2.52171 
422 422 1 1.575 -24.5461 -32.8587 0.399359 
423 423 1 1.575 -23.325 -56.2336 -4.2101 
424 424 1 1.575 -23.3322 -56.3607 1.36288 
425 425 1 1.575 -22.0829 -33.4507 -3.8812 
426 426 1 1.575 -21.98 -33.4466 1.62228 
427 427 1 1.575 -21.0147 -55.2557 -2.90093 
428 428 1 1.575 -20.8632 -55.6153 0.0580585 
429 429 1 1.575 -19.8742 -34.67 -2.61732 
430 430 1 1.575 -19.8061 -34.6163 0.331541 
431 431 1 1.575 -18.8083 -53.9722 -4.13464 
432 432 1 1.575 -18.7655 -54.0089 1.38323 
433 433 1 1.575 -17.7942 -36.0515 -4.08944 
434 434 1 1.575 -17.5861 -36.0298 1.45919 
435 435 1 1.575 -16.9367 -52.2079 -2.65079 
436 436 1 1.575 -16.7711 -52.265 0.279631 
437 437 1 1.575 -15.9114 -37.644 -2.71981 
438 438 1 1.575 -15.72 -37.809 0.220046 
439 439 1 1.575 -15.5054 -50.0821 -4.25486 
440 440 1 1.575 -15.205 -50.0787 1.36492 
441 441 1 1.575 -14.6602 -40.1629 -4.09361 
442 442 1 1.575 -14.6329 -40.1438 1.4807 
443 443 1 1.575 -14.6867 -47.7255 -2.73454 
444 444 1 1.575 -14.6 -47.4927 0.0824266 
445 445 1 1.575 -14.3332 -42.7035 -2.81824 
446 446 1 1.575 -14.4788 -42.7678 0.0928915 
447 447 1 1.575 -14.5727 -45.1409 -4.11751 
448 448 1 1.575 -14.4508 -45.1822 1.54283 
449 449 2 0.425 -33.1993 -45.2463 -0.789043 
450 450 2 0.425 -32.8491 -46.704 3.48416 
451 451 2 0.425 -32.951 -43.2737 2.20077 
452 452 2 0.425 -32.2118 -48.9989 -1.19351 
453 453 2 0.425 -32.6305 -42.1335 -1.35265 
454 454 2 0.425 -31.3327 -50.2876 2.88332 
455 455 2 0.425 -31.9052 -40.9175 2.82718 
456 456 2 0.425 -29.987 -51.3509 -1.38063 
457 457 2 0.425 -29.8906 -39.3054 -1.4817 
458 458 2 0.425 -28.6951 -51.9286 2.7173 
459 459 2 0.425 -28.2785 -38.0648 3.00487 
460 460 2 0.425 -26.7352 -52.6534 -1.32612 
461 461 2 0.425 -26.6636 -36.9343 -0.978277 
462 462 2 0.425 -24.9736 -52.8734 3.20254 
463 463 2 0.425 -25.4991 -36.711 3.1423 
464 464 2 0.425 -23.3449 -52.3596 -1.40164 
465 465 2 0.425 -24.2006 -36.6995 -0.893997 
466 466 2 0.425 -21.975 -51.7538 2.0977 
467 467 2 0.425 -22.5779 -37.3514 2.62346 
468 468 2 0.425 -20.8935 -50.7334 -0.908649 
469 469 2 0.425 -20.6194 -38.5347 -1.21794 
470 470 2 0.425 -19.1841 -49.2377 3.12779 
471 471 2 0.425 -19.1761 -39.8519 3.50396 
472 472 2 0.425 -18.6603 -47.8893 -1.63375 
473 473 2 0.425 -18.4973 -40.3724 -1.59187 
474 474 2 0.425 -18.4064 -46.4323 2.56477 
475 475 2 0.425 -18.1727 -42.1205 2.4897 
476 476 2 0.425 -18.2339 -44.2112 -0.935479 
477 477 3 0.425 -38.0863 -44.9865 -1.76711 
478 478 3 0.425 -37.9928 -42.1865 2.35873 
479 479 3 0.425 -38.4602 -48.6495 1.16296 
480 480 3 0.425 -37.0127 -39.457 -1.65919 
481 481 3 0.425 -37.0934 -51.5292 -3.40143 
482 482 3 0.425 -35.9631 -36.7257 1.52057 
483 483 3 0.425 -35.3078 -53.3474 2.31689 
484 484 3 0.425 -33.9086 -35.0095 -3.20491 
485 485 3 0.425 -33.1437 -55.1757 -1.83121 
486 486 3 0.425 -31.7663 -33.3033 1.07705 
487 487 3 0.425 -30.8871 -56.6418 2.29042 
488 488 3 0.425 -29.2194 -32.0366 -3.0723 
489 489 3 0.425 -27.546 -58.2397 -3.56456 
490 490 3 0.425 -25.7365 -30.7453 1.38922 
491 491 3 0.425 -25.3085 -57.5065 2.36702 
492 492 3 0.425 -22.877 -31.0032 -3.01284 
493 493 3 0.425 -21.5355 -57.8214 -3.30688 
494 494 3 0.425 -19.9147 -32.1613 1.2009 
495 495 3 0.425 -19.5106 -56.3556 2.12647 
496 496 3 0.425 -17.6356 -33.6564 -3.35016 
497 497 3 0.425 -16.692 -55.0329 -3.22949 
498 498 3 0.425 -15.2216 -35.3564 1.01563 
499 499 3 0.425 -15.053 -52.3099 2.34745 
500 500 3 0.425 -13.2687 -38.0602 -3.38335 
501 501 3 0.425 -13.1738 -49.8189 -3.17009 
502 502 3 0.425 -12.3608 -41.2352 0.852001 
503 503 3 0.425 -13.4049 -47.3098 2.32119 
504 504 3 0.425 -12.3316 -44.2339 -3.26838 
505 505 3 0.425 -38.7654 -44.4945 2.88303 
506 506 3 0.425 -38.3388 -41.2039 -1.14273 
507 507 3 0.425 -37.397 -48.722 -1.37607 
508 508 3 0.425 -37.2489 -40.3853 3.25218 
509 509 3 0.425 -37.8575 -50.5311 2.98554 
510 510 3 0.425 -35.8834 -37.41 -1.14511 
511 511 3 0.425 -36.2646 -53.3534 -1.29697 
512 512 3 0.425 -33.7709 -35.7861 3.01125 
513 513 3 0.425 -34.3025 -55.3911 3.19881 
514 514 3 0.425 -31.5609 -34.4542 -0.985177 
515 515 3 0.425 -30.4314 -57.3268 -1.15374 
516 516 3 0.425 -29.1644 -32.5208 3.33865 
517 517 3 0.425 -28.8859 -58.0787 2.89453 
518 518 3 0.425 -24.4526 -30.9087 -1.18576 
519 519 3 0.425 -26.1048 -58.4494 -1.22538 
520 520 3 0.425 -23.2926 -31.8538 2.94598 
521 521 3 0.425 -21.5038 -57.5119 2.94561 
522 522 3 0.425 -20.928 -32.7028 -1.069 
523 523 3 0.425 -18.8981 -55.7525 -1.48821 
524 524 3 0.425 -18.4321 -34.1438 3.0119 
525 525 3 0.425 -16.6006 -53.9874 3.04691 
526 526 3 0.425 -16.1893 -35.6527 -1.18365 
527 527 3 0.425 -14.7426 -51.7471 -1.47445 
528 528 3 0.425 -14.0429 -38.1841 2.93756 
529 529 3 0.425 -13.3917 -49.2791 3.08891 
530 530 3 0.425 -13.5253 -41.0031 -1.43216 
531 531 3 0.425 -13.35 -46.0859 -1.61115 
532 532 3 0.425 -13.2568 -43.4518 2.97869 
533 533 3 0.425 -38.7495 -45.6525 0.717496 
534 534 3 0.425 -38.6952 -42.6052 -3.64335 
535 535 3 0.425 -37.7252 -48.1152 -4.94333 
536 536 3 0.425 -38.0017 -39.8292 1.01027 
537 537 3 0.425 -36.7675 -50.6809 -0.741286 
538 538 3 0.425 -35.3297 -36.971 -4.67151 
539 539 3 0.425 -35.5554 -54.1094 -3.38218 
540 540 3 0.425 -33.8894 -34.9041 0.707335 
541 541 3 0.425 -33.3861 -56.0876 0.762857 
542 542 3 0.425 -31.6388 -33.2674 -3.60807 
543 543 3 0.425 -30.537 -57.5268 -3.67851 
544 544 3 0.425 -29.2666 -31.9587 1.08871 
545 545 3 0.425 -28.0722 -57.5424 -0.65971 
546 546 3 0.425 -25.3103 -31.715 -4.72269 
547 547 3 0.425 -24.6771 -58.3454 -3.29598 
548 548 3 0.425 -22.7539 -31.1046 0.78268 
549 549 3 0.425 -22.3977 -57.3019 -0.80031 
550 550 3 0.425 -19.91 -32.1754 -3.33808 
551 551 3 0.425 -18.945 -56.5802 -3.84726 
552 552 3 0.425 -17.3719 -33.7164 0.630591 
553 553 3 0.425 -17.1275 -54.5255 -0.611385 
554 554 3 0.425 -15.3467 -35.2409 -3.42433 
555 555 3 0.425 -14.4115 -52.5907 -3.69113 
556 556 3 0.425 -13.2238 -37.9946 0.771727 
557 557 3 0.425 -12.9068 -49.3921 0.485395 
558 558 3 0.425 -12.2368 -41.3372 -3.67695 
559 559 3 0.425 -12.505 -46.6029 -3.81373 
560 560 3 0.425 -12.3579 -44.0083 0.479784 
561 561 4 -1.05 -35.8841 -43.7652 -2.43785 
562 562 4 -1.05 -35.7174 -43.7981 0.210397 
563 563 4 -1.05 -35.6514 -43.6613 3.06831 
564 564 4 -1.05 -35.8559 -46.1523 -4.15588 
565 565 4 -1.05 -35.5385 -45.9962 -1.06667 
566 566 4 -1.05 -35.7385 -46.0964 1.75012 
567 567 4 -1.05 -35.2875 -41.5754 -4.02277 
568 568 4 -1.05 -35.1033 -41.4937 -1.13903 
569 569 4 -1.05 -35.4129 -41.4668 1.80565 
570 570 4 -1.05 -35.2044 -48.5211 -2.51559 
571 571 4 -1.05 -35.379 -48.5472 0.0986091 
572 572 4 -1.05 -35.1736 -48.2964 3.04592 
573 573 4 -1.05 -34.2327 -39.3854 -2.32044 
574 574 4 -1.05 -34.2853 -39.4191 0.146896 
575 575 4 -1.05 -34.0774 -39.4101 3.17246 
576 576 4 -1.05 -34.2571 -50.7198 -4.15059 
577 577 4 -1.05 -34.3112 -50.5247 -1.18366 
578 578 4 -1.05 -34.351 -50.7299 1.68503 
579 579 4 -1.05 -32.5125 -37.8351 -4.01756 
580 580 4 -1.05 -32.3042 -37.5868 -1.14077 
581 581 4 -1.05 -32.5256 -37.7637 1.81265 
582 582 4 -1.05 -32.8383 -52.3548 -2.55555 
583 583 4 -1.05 -32.8749 -52.4389 0.0451214 
584 584 4 -1.05 -32.8908 -52.425 2.90582 
585 585 4 -1.05 -30.518 -36.266 -2.39809 
586 586 4 -1.05 -30.6676 -36.2751 0.236834 
587 587 4 -1.05 -30.2981 -36.2622 3.10797 
588 588 4 -1.05 -31.0665 -53.9159 -4.17017 
589 589 4 -1.05 -31.1672 -53.8304 -1.29772 
590 590 4 -1.05 -30.9964 -53.9142 1.706 
591 591 4 -1.05 -28.3934 -35.0601 -3.95355 
592 592 4 -1.05 -28.2489 -34.9349 -0.938379 
593 593 4 -1.05 -28.5305 -34.769 1.95195 
594 594 4 -1.05 -28.9433 -55.0663 -2.55193 
595 595 4 -1.05 -28.8562 -54.9182 0.074669 
596 596 4 -1.05 -28.9694 -54.7592 2.99009 
597 597 4 -1.05 -26.2046 -33.919 -2.33841 
598 598 4 -1.05 -26.2528 -33.8587 0.251803 
599 599 4 -1.05 -26.2211 -34.0497 3.11202 
600 600 4 -1.05 -26.567 -55.3984 -4.16972 
601 601 4 -1.05 -26.7756 -55.4036 -1.32717 
602 602 4 -1.05 -26.6255 -55.4397 1.65298 
603 603 4 -1.05 -23.973 -33.9419 -4.05911 
604 604 4 -1.05 -23.839 -34.0482 -1.16233 
605 605 4 -1.05 -23.9112 -33.9221 1.86729 
606 606 4 -1.05 -24.1904 -55.2856 -2.59264 
607 607 4 -1.05 -24.3023 -55.4041 -0.0655893 
608 608 4 -1.05 -24.4255 -55.4565 2.89228 
609 609 4 -1.05 -21.8522 -34.7811 -2.48636 
610 610 4 -1.05 -21.7977 -34.716 0.106949 
611 611 4 -1.05 -21.6735 -34.7472 3.13076 
612 612 4 -1.05 -22.0391 -54.7972 -4.31421 
613 613 4 -1.05 -22.1335 -54.7849 -1.32824 
614 614 4 -1.05 -21.9298 -54.8392 1.51426 
615 615 4 -1.05 -19.6946 -35.85 -4.13997 
616 616 4 -1.05 -19.6607 -35.9518 -1.25575 
617 617 4 -1.05 -19.7738 -35.8001 1.67866 
618 618 4 -1.05 -19.9958 -53.6472 -2.68544 
619 619 4 -1.05 -19.7655 -53.6692 -0.155196 
620 620 4 -1.05 -20.1196 -53.6989 2.84781 
621 621 4 -1.05 -17.8356 -37.2314 -2.62593 
622 622 4 -1.05 -17.9462 -37.2391 0.0328235 
623 623 4 -1.05 -17.7829 -37.3039 2.95523 
624 624 4 -1.05 -18.0499 -52.1571 -4.2403 
625 625 4 -1.05 -18.3296 -52.078 -1.39901 
626 626 4 -1.05 -18.1837 -52.1361 1.67925 
627 627 4 -1.05 -16.2395 -38.8194 -4.15562 
628 628 4 -1.05 -16.122 -38.9459 -1.20072 
629 629 4 -1.05 -16.1462 -38.9011 1.72946 
630 630 4 -1.05 -16.632 -50.3814 -2.70217 
631 631 4 -1.05 -16.6873 -50.2768 -0.0842437 
632 632 4 -1.05 -16.7345 -50.3504 2.90536 
633 633 4 -1.05 -15.5418 -41.0289 -2.58398 
634 634 4 -1.05 -15.5002 -41.1306 -0.0237419 
635 635 4 -1.05 -15.5016 -41.1863 3.06936 
636 636 4 -1.05 -15.8631 -48.178 -4.3423 
637 637 4 -1.05 -15.8576 -48.2846 -1.42245 
638 638 4 -1.05 -15.6893 -48.1187 1.56783 
639 639 4 -1.05 -15.3957 -43.4565 -4.11949 
640 640 4 -1.05 -15.4759 -43.5912 -1.32776 
641 641 4 -1.05 -15.3338 -43.4087 1.66763 
642 642 4 -1.05 -15.5463 -45.7881 -2.64437 
643 643 4 -1.05 -15.4707 -45.7662 -0.0462811 
644 644 4 -1.05 -15.6669 -45.9537 2.83887 
645 645 5 -0.95 -33.5585 -44.4381 -1.20824 
646 646 5 -0.95 -33.5728 -46.1132 3.16181 
647 647 5 -0.95 -33.2816 -42.4616 2.81081 
648 648 5 -0.95 -33.021 -48.3768 -1.01856 
649 649 5 -0.95 -32.6557 -41.1491 -1.17389 
650 650 5 -0.95 -32.2765 -49.8749 2.92908 
651 651 5 -0.95 -31.5503 -39.8924 3.02524 
652 652 5 -0.95 -31.0184 -51.2154 -1.32281 
653 653 5 -0.95 -29.7706 -38.3819 -1.04069 
654 654 5 -0.95 -29.6482 -52.1361 2.96753 
655 655 5 -0.95 -27.8267 -37.1244 2.98191 
656 656 5 -0.95 -27.7095 -53.0166 -1.42453 
657 657 5 -0.95 -26.0264 -36.1183 -0.994219 
658 658 5 -0.95 -25.8242 -53.2949 2.81735 
659 659 5 -0.95 -24.6459 -36.1545 3.19123 
660 660 5 -0.95 -24.0832 -53.0743 -1.20907 
661 661 5 -0.95 -23.1673 -36.5188 -0.936731 
662 662 5 -0.95 -22.3772 -52.5709 2.64097 
663 663 5 -0.95 -21.5346 -37.3194 2.92886 
664 664 5 -0.95 -20.9849 -51.7349 -1.17342 
665 665 5 -0.95 -19.5798 -38.6347 -1.33513 
666 666 5 -0.95 -19.3326 -50.1941 2.85637 
667 667 5 -0.95 -18.2806 -39.7966 2.98787 
668 668 5 -0.95 -18.4352 -48.8995 -1.54464 
669 669 5 -0.95 -17.7699 -40.9531 -1.21208 
670 670 5 -0.95 -17.8731 -47.2654 2.80665 
671 671 5 -0.95 -17.5455 -42.7773 2.97312 
672 672 5 -0.95 -17.6676 -44.9706 -1.29892 
673 673 6 -0.95 -37.9839 -45.3976 -2.71943 
674 674 6 -0.95 -37.8266 -42.6293 1.462 
675 675 6 -0.95 -37.6379 -48.2082 1.51026 
676 676 6 -0.95 -36.9304 -39.9039 -2.57986 
677 677 6 -0.95 -36.5166 -50.912 -2.85789 
678 678 6 -0.95 -35.2426 -37.4659 1.61063 