# This file is created by imo_withASE.py SR 01/04/2022 - and this is not a joke !
6916 atoms 
1976 bonds 
3458 angles 
7 atom types 
2 bond types 
2 angle types 
-106.0 106.0 xlo xhi 
-106.0 106.0 ylo yhi 
-4.225 4.225 zlo zhi 
0.0 0.0 0.0 xy xz yz 

 Masses 

1 26.9815385   #Al
2 1.008   #Hin
3 1.008   #Hout
4 15.999   #Obr
5 15.999   #Oin
6 15.999   #Oout
7 28.085   #Si

 Atoms  # full 

1 1 1 1.575 -10.0017 -0.385406 -3.73158 
2 2 1 1.575 -9.82145 -0.302451 1.86041 
3 3 1 1.575 -9.8453 2.1671 0.38921 
4 4 1 1.575 -9.8989 2.11384 -2.42766 
5 5 1 1.575 -9.73383 -2.92931 -2.47376 
6 6 1 1.575 -9.78636 -2.91931 0.40111 
7 7 1 1.575 -9.4516 4.56383 -3.64327 
8 8 1 1.575 -9.37942 4.66421 1.86277 
9 9 1 1.575 -8.89355 -5.22281 1.839 
10 10 1 1.575 -8.97789 -5.28302 -3.70572 
11 11 1 1.575 -8.33107 7.00178 0.506284 
12 12 1 1.575 -8.41117 6.91121 -2.40395 
13 13 1 1.575 -7.52081 -7.53204 -2.6222 
14 14 1 1.575 -7.54822 -7.41967 0.343856 
15 15 1 1.575 -6.71154 8.93176 -3.59038 
16 16 1 1.575 -6.5376 8.99294 1.90982 
17 17 1 1.575 -5.30353 -8.89657 1.77583 
18 18 1 1.575 -5.3676 -8.83318 -3.8124 
19 19 1 1.575 -4.44205 10.4404 0.563669 
20 20 1 1.575 -4.51876 10.2687 -2.25687 
21 21 1 1.575 -3.05195 -9.90734 -2.52115 
22 22 1 1.575 -3.04882 -10.054 0.426976 
23 23 1 1.575 -2.15987 11.5424 -3.73149 
24 24 1 1.575 -2.11557 11.4743 1.84036 
25 25 1 1.575 -0.475983 -10.3755 1.79425 
26 26 1 1.575 -0.342339 -10.274 -3.7817 
27 27 1 1.575 0.221254 11.9148 0.369006 
28 28 1 1.575 0.376841 11.91 -2.42914 
29 29 1 1.575 2.12701 -9.54829 -2.35812 
30 30 1 1.575 2.05956 -9.65597 0.579193 
31 31 1 1.575 3.01669 11.5226 -3.7704 
32 32 1 1.575 2.90559 11.6622 1.73191 
33 33 1 1.575 4.34503 -8.47112 1.93273 
34 34 1 1.575 4.4562 -8.44577 -3.67094 
35 35 1 1.575 5.32891 10.5027 0.302878 
36 36 1 1.575 5.32763 10.457 -2.59262 
37 37 1 1.575 6.57347 -7.20156 -2.34131 
38 38 1 1.575 6.53046 -7.11874 0.608177 
39 39 1 1.575 7.57057 9.07759 -3.77412 
40 40 1 1.575 7.35817 8.94925 1.7641 
41 41 1 1.575 8.53833 -5.40521 1.76244 
42 42 1 1.575 8.40025 -5.27902 -3.74819 
43 43 1 1.575 9.11461 7.08315 0.424976 
44 44 1 1.575 9.1123 7.10762 -2.42054 
45 45 1 1.575 9.70736 -3.00571 -2.44935 
46 46 1 1.575 9.82178 -3.21343 0.397674 
47 47 1 1.575 10.3595 4.56923 -3.79036 
48 48 1 1.575 10.356 4.56822 1.73142 
49 49 1 1.575 10.3232 -0.621651 1.66878 
50 50 1 1.575 10.1535 -0.543938 -3.89474 
51 51 1 1.575 10.3304 2.05672 -2.53594 
52 52 1 1.575 10.4363 1.97567 0.372039 
53 53 4 -1.05 -8.82717 0.564331 3.3825 
54 54 4 -1.05 -8.95413 0.47332 0.332126 
55 55 4 -1.05 -8.95187 0.416049 -2.23656 
56 56 4 -1.05 -8.79601 -1.83212 2.0042 
57 57 4 -1.05 -8.86466 -1.965 -3.88931 
58 58 4 -1.05 -8.81762 -1.77398 -0.846732 
59 59 4 -1.05 -8.67237 2.90431 -1.01211 
60 60 4 -1.05 -8.88229 2.78312 -3.85137 
61 61 4 -1.05 -8.72609 2.79471 2.08473 
62 62 4 -1.05 -8.4186 -4.18284 -2.32053 
63 63 4 -1.05 -8.3175 -4.17115 0.336364 
64 64 4 -1.05 -8.37574 -4.07557 3.35576 
65 65 4 -1.05 -8.18342 5.18137 3.36499 
66 66 4 -1.05 -8.12034 4.99695 0.343282 
67 67 4 -1.05 -8.3578 5.04638 -2.19711 
68 68 4 -1.05 -7.27754 -6.20693 1.91691 
69 69 4 -1.05 -7.20908 -6.28985 -3.96138 
70 70 4 -1.05 -7.15838 -5.97962 -0.894813 
71 71 4 -1.05 -6.91527 7.14051 -0.870871 
72 72 4 -1.05 -7.08775 6.99276 -3.79014 
73 73 4 -1.05 -7.10754 7.08816 2.00768 
74 74 4 -1.05 -5.44187 -7.78551 -2.33973 
75 75 4 -1.05 -5.51528 -7.81137 0.259219 
76 76 4 -1.05 -5.41129 -7.48518 3.20433 
77 77 4 -1.05 -5.12134 8.73789 3.4059 
78 78 4 -1.05 -5.29439 8.58822 0.413219 
79 79 4 -1.05 -5.31936 8.61588 -2.14025 
80 80 4 -1.05 -3.31046 -8.80786 1.91013 
81 81 4 -1.05 -3.40981 -8.77938 -3.96891 
82 82 4 -1.05 -3.55665 -8.81822 -1.01874 
83 83 4 -1.05 -3.195 9.85331 -0.856876 
84 84 4 -1.05 -3.29077 9.98973 -3.90317 
85 85 4 -1.05 -3.37863 9.94557 2.03049 
86 86 4 -1.05 -1.23166 -9.21787 -2.26015 
87 87 4 -1.05 -1.22826 -9.4551 0.339043 
88 88 4 -1.05 -1.30797 -9.3497 3.26267 
89 89 4 -1.05 -1.04808 10.7114 3.28945 
90 90 4 -1.05 -1.18598 10.7319 0.355984 
91 91 4 -1.05 -1.2775 10.8626 -2.20084 
92 92 4 -1.05 1.02476 -9.05007 2.09331 
93 93 4 -1.05 1.10107 -9.00499 -3.81212 
94 94 4 -1.05 0.952943 -8.76256 -0.88763 
95 95 4 -1.05 1.20461 10.8358 -1.01158 
96 96 4 -1.05 1.18571 11.0004 -3.91774 
97 97 4 -1.05 1.06043 10.9124 1.92088 
98 98 4 -1.05 3.34103 -8.02125 -2.30365 
99 99 4 -1.05 3.20859 -8.00526 0.341465 
100 100 4 -1.05 3.00198 -8.01268 3.24982 
101 101 4 -1.05 3.42787 10.1888 3.26075 
102 102 4 -1.05 3.37784 10.1975 0.2578 
103 103 4 -1.05 3.41191 10.3024 -2.33267 
104 104 4 -1.05 5.2134 -6.53219 2.03724 
105 105 4 -1.05 5.25092 -6.68568 -3.92056 
106 106 4 -1.05 5.1156 -6.74677 -0.866412 
107 107 4 -1.05 5.54135 9.08775 -1.19235 
108 108 4 -1.05 5.55405 9.24478 -3.9921 
109 109 4 -1.05 5.53811 9.26246 1.87329 
110 110 4 -1.05 7.16948 -5.43104 -2.23254 
111 111 4 -1.05 7.18411 -5.27657 0.266379 
112 112 4 -1.05 7.11053 -5.26073 3.28183 
113 113 4 -1.05 7.39352 7.52623 3.14004 
114 114 4 -1.05 7.20253 7.71437 0.295987 
115 115 4 -1.05 7.36742 7.80635 -2.33886 
116 116 4 -1.05 8.6427 -3.4627 1.88248 
117 117 4 -1.05 8.56253 -3.38377 -3.94802 
118 118 4 -1.05 8.41559 -3.54655 -1.1113 
119 119 4 -1.05 8.70919 5.90051 -1.07527 
120 120 4 -1.05 8.98906 5.99743 -3.91658 
121 121 4 -1.05 8.97267 5.89544 1.98477 
122 122 4 -1.05 9.26179 -1.21635 -2.27689 
123 123 4 -1.05 9.22181 -1.21052 0.326028 
124 124 4 -1.05 9.09446 -1.28206 3.20052 
125 125 4 -1.05 9.27248 3.52615 3.36613 
126 126 4 -1.05 9.084 3.80675 0.291449 
127 127 4 -1.05 9.29792 3.62895 -2.25521 
128 128 4 -1.05 9.48707 1.34271 1.95406 
129 129 4 -1.05 9.20403 1.18767 -4.04206 
130 130 4 -1.05 9.24213 1.02485 -0.934725 
131 131 6 -0.95 -11.0605 -1.06814 3.32241 
132 132 6 -0.95 -10.9756 -1.2687 0.669853 
133 133 6 -0.95 -11.0958 -1.36441 -2.4111 
134 134 6 -0.95 -10.8238 1.3946 1.86234 
135 135 6 -0.95 -11.0385 1.24922 -3.70656 
136 136 6 -0.95 -11.0185 1.54676 -1.06304 
137 137 6 -0.95 -10.7657 -3.60011 -1.02312 
138 138 6 -0.95 -10.7305 -3.85896 -3.71749 
139 139 6 -0.95 -10.5489 -4.10176 1.63378 
140 140 6 -0.95 -10.894 3.9444 -2.40859 
141 141 6 -0.95 -10.5743 3.98706 0.450774 
142 142 6 -0.95 -10.7764 4.47591 3.28931 
143 143 6 -0.95 -9.78525 -6.25339 3.3289 
144 144 6 -0.95 -9.37792 -6.86396 0.669407 
145 145 6 -0.95 -9.34302 -6.76586 -2.43702 
146 146 6 -0.95 -9.71687 6.59446 1.69064 
147 147 6 -0.95 -10.0282 6.52602 -3.49094 
148 148 6 -0.95 -9.67587 7.17896 -1.02875 
149 149 6 -0.95 -7.86013 -8.59043 -1.08958 
150 150 6 -0.95 -7.38161 -9.01977 -3.75605 
151 151 6 -0.95 -7.50676 -8.92759 1.63239 
152 152 5 -0.95 -6.75086 -0.265541 -0.893538 
153 153 5 -0.95 -6.53949 -2.30891 3.22895 
154 154 5 -0.95 -6.70149 1.88536 3.48556 
155 155 6 -0.95 -8.40748 8.91871 -2.62747 
156 156 6 -0.95 -8.1261 9.15189 0.516024 
157 157 6 -0.95 -7.8163 9.24261 3.21888 
158 158 5 -0.95 -6.17311 -3.61486 -1.03946 
159 159 5 -0.95 -6.23387 4.07383 -1.18274 
160 160 6 -0.95 -5.40713 -10.0964 3.15398 
161 161 5 -0.95 -5.4954 -4.87301 3.14058 
162 162 5 -0.95 -5.64425 5.31737 3.21781 
163 163 6 -0.95 -4.91176 -10.4094 0.655736 
164 164 6 -0.95 -4.87919 -10.6888 -2.87595 
165 165 6 -0.95 -5.94737 10.7814 1.77334 
166 166 6 -0.95 -6.0736 10.716 -3.66187 
167 167 6 -0.95 -5.52796 11.0093 -0.999316 
168 168 5 -0.95 -3.87461 -6.17837 -1.00059 
169 169 5 -0.95 -4.45503 6.52148 -0.912803 
170 170 6 -0.95 -2.90184 -11.2983 -0.978629 
171 171 6 -0.95 -2.06827 -11.3811 -3.67109 
172 172 6 -0.95 -2.38947 -11.4408 1.73214 
173 173 5 -0.95 -2.11476 -6.8874 3.1886 
174 174 5 -0.95 -2.68326 7.75489 3.34743 
175 175 6 -0.95 -3.50477 12.1862 -2.40313 
176 176 6 -0.95 -3.53599 12.1944 0.668644 
177 177 6 -0.95 -2.98862 12.485 3.35431 
178 178 5 -0.95 -1.0534 -7.12706 -0.810774 
179 179 5 -0.95 -0.924264 8.55573 -1.0423 
180 180 6 -0.95 0.282601 -11.53 3.29219 
181 181 6 -0.95 0.876164 -11.1761 0.654643 
182 182 6 -0.95 0.775437 -11.1745 -2.44596 
183 183 6 -0.95 -0.904477 13.0363 1.66692 
184 184 6 -0.95 -0.715938 12.8933 -3.73862 
185 185 6 -0.95 -0.0353259 13.2113 -0.978233 
186 186 5 -0.95 0.70568 -6.81924 3.42624 
187 187 5 -0.95 0.689879 8.75005 3.34501 
188 188 6 -0.95 3.0192 -10.4206 -0.933631 
189 189 6 -0.95 3.47794 -10.3477 -3.54408 
190 190 6 -0.95 3.45292 -10.21 1.79297 
191 191 5 -0.95 2.71983 -5.90108 -1.10703 
192 192 5 -0.95 1.91953 8.4314 -1.1106 
193 193 6 -0.95 2.34268 12.985 -2.5309 
194 194 6 -0.95 2.28175 12.8885 0.33477 
195 195 6 -0.95 2.71715 12.7797 3.14154 
196 196 5 -0.95 4.67648 -4.43675 3.41859 
197 197 5 -0.95 3.94461 7.62058 3.17413 
198 198 6 -0.95 5.44548 -9.06814 3.33866 
199 199 6 -0.95 5.86212 -8.88261 0.80615 
200 200 6 -0.95 5.82681 -8.86898 -2.4252 
201 201 6 -0.95 4.89162 11.9288 1.6292 
202 202 6 -0.95 4.91221 11.959 -3.77662 
203 203 5 -0.95 5.76995 -3.60643 -1.10363 
204 204 5 -0.95 5.47814 6.51276 -1.06532 
205 205 6 -0.95 5.28517 11.645 -1.0516 
206 206 5 -0.95 6.63912 -2.30338 3.13375 
207 207 5 -0.95 6.85186 5.08856 3.35919 
208 208 6 -0.95 7.7865 -7.70969 -0.928918 
209 209 6 -0.95 7.95142 -7.5488 -3.69183 
210 210 6 -0.95 8.00211 -7.27426 1.7646 
211 211 5 -0.95 7.12825 -0.499963 -0.9998 
212 212 5 -0.95 6.92761 4.14931 -1.20573 
213 213 5 -0.95 7.171 2.19705 2.91624 
214 214 6 -0.95 7.32724 10.5535 -2.55976 
215 215 6 -0.95 7.25758 10.5507 0.360299 
216 216 6 -0.95 7.7141 10.2431 3.20838 
217 217 6 -0.95 9.78077 -5.52007 3.29996 
218 218 6 -0.95 10.0317 -5.13767 0.414481 
219 219 6 -0.95 10.0513 -5.24109 -2.60795 
220 220 6 -0.95 9.26159 8.82342 1.41179 
221 221 6 -0.95 9.40405 8.57518 -3.64699 
222 222 6 -0.95 10.0783 7.98775 -1.04957 
223 223 6 -0.95 11.008 -3.01322 -1.04011 
224 224 6 -0.95 11.1308 -2.23491 -3.76617 
225 225 6 -0.95 11.1063 -2.43342 1.70512 
226 226 6 -0.95 11.4677 5.40804 -2.33291 
227 227 6 -0.95 11.1312 5.80429 0.439294 
228 228 6 -0.95 11.3567 5.38836 3.23232 
229 229 6 -0.95 11.3945 -0.134465 3.07479 
230 230 6 -0.95 11.3908 0.260067 0.423157 
231 231 6 -0.95 11.1278 0.431265 -2.64025 
232 232 6 -0.95 11.3874 3.06959 1.52023 
233 233 6 -0.95 11.3888 2.9888 -3.77536 
234 234 6 -0.95 11.4704 2.61136 -1.09752 
235 235 7 2.1 -8.34544 -0.27924 -0.911763 
236 236 7 2.1 -8.09738 -2.46577 3.31788 
237 237 7 2.1 -8.21747 2.02708 3.35268 
238 238 7 2.1 -7.46041 -4.47887 -0.943548 
239 239 7 2.1 -7.76992 4.21956 -0.996842 
240 240 7 2.1 -6.28284 -6.1993 3.1996 
241 241 7 2.1 -6.90224 6.19021 3.2965 
242 242 7 2.1 -4.57122 -7.62254 -1.00807 
243 243 7 2.1 -5.47815 7.66901 -0.845496 
244 244 7 2.1 -2.55492 -8.43247 3.18119 
245 245 7 2.1 -3.60408 9.09421 3.24678 
246 246 7 2.1 -0.663565 -8.65663 -0.916329 
247 247 7 2.1 -1.64221 9.90563 -0.965755 
248 248 7 2.1 1.47945 -8.11044 3.30507 
249 249 7 2.1 0.471918 10.2848 3.27301 
250 250 7 2.1 3.54082 -7.19987 -0.955304 
251 251 7 2.1 2.48386 9.95799 -1.03948 
252 252 7 2.1 5.50312 -5.69884 3.36885 
253 253 7 2.1 4.58288 9.02561 3.12547 
254 254 7 2.1 7.05328 -4.44177 -1.0618 
255 255 7 2.1 6.27861 7.80351 -1.15116 
256 256 7 2.1 8.20703 -2.56793 3.14127 
257 257 7 2.1 8.05242 6.10323 3.28374 
258 258 7 2.1 8.65329 -0.437782 -0.932747 
259 259 7 2.1 8.49506 4.2991 -1.10604 
260 260 7 2.1 8.69738 2.07356 3.20986 
261 261 3 0.425 -11.0283 -2.10424 3.2905 
262 262 3 0.425 -11.3844 -0.956373 -0.219328 
263 263 3 0.425 -12.0738 -1.63242 -2.64699 
264 264 3 0.425 -11.8551 1.18089 1.81351 
265 265 3 0.425 -10.9588 1.64115 -4.68217 
266 266 3 0.425 -11.4339 0.583813 -1.15652 
267 267 3 0.425 -11.6932 -3.22748 -1.11566 
268 268 3 0.425 -11.5836 -4.19993 -3.34178 
269 269 3 0.425 -10.7968 -3.69791 2.5702 
270 270 3 0.425 -10.7004 4.23615 -1.423 
271 271 3 0.425 -11.4757 3.96546 0.869001 
272 272 3 0.425 -11.35 5.36774 3.36637 
273 273 3 0.425 -10.797 -6.18173 3.31334 
274 274 3 0.425 -9.91182 -7.51462 1.20666 
275 275 3 0.425 -9.54808 -6.62571 -1.41868 
276 276 3 0.425 -10.5827 6.86903 1.29588 
277 277 3 0.425 -10.8374 6.48305 -2.87347 
278 278 3 0.425 -10.0715 8.13709 -1.04997 
279 279 3 0.425 -7.87486 -9.59146 -0.991136 
280 280 3 0.425 -7.74849 -9.96052 -3.50297 
281 281 3 0.425 -7.84475 -8.72256 2.61553 
282 282 2 0.425 -6.14476 0.437084 -1.29111 
283 283 2 0.425 -5.99988 -3.18053 3.16981 
284 284 2 0.425 -6.20406 1.13361 3.01826 
285 285 3 0.425 -9.23476 9.31028 -3.07438 
286 286 3 0.425 -7.89787 9.52063 -0.397115 
287 287 3 0.425 -8.64569 8.65528 3.07688 
288 288 2 0.425 -6.01037 -2.60401 -0.972947 
289 289 2 0.425 -5.52821 4.81867 -1.02037 
290 290 3 0.425 -4.70848 -10.8066 3.00732 
291 291 2 0.425 -4.46853 -4.79841 3.24791 
292 292 2 0.425 -5.62712 4.28235 2.97242 
293 293 3 0.425 -5.17738 -11.3587 0.897259 
294 294 3 0.425 -4.68462 -11.3606 -3.63984 
295 295 3 0.425 -6.63436 11.4719 1.47476 
296 296 3 0.425 -5.76547 10.9361 -4.58585 
297 297 3 0.425 -5.75191 12.061 -1.19044 
298 298 2 0.425 -4.30293 -5.40981 -0.574658 
299 299 2 0.425 -3.49884 6.71101 -1.2236 
300 300 3 0.425 -1.94833 -11.6707 -1.11493 
301 301 3 0.425 -2.50473 -11.5042 -4.56326 
302 302 3 0.425 -2.52616 -12.4364 1.45048 
303 303 2 0.425 -1.13279 -6.46812 3.15144 
304 304 2 0.425 -2.83473 6.97274 3.954 
305 305 3 0.425 -3.01503 12.6141 -1.62091 
306 306 3 0.425 -4.17504 12.9306 1.13057 
307 307 3 0.425 -4.05124 12.5976 3.35321 
308 308 2 0.425 -1.97747 -6.71154 -1.02055 
309 309 2 0.425 0.111659 8.39742 -1.21747 
310 310 3 0.425 1.25019 -11.7645 3.06866 
311 311 3 0.425 0.558982 -11.6701 -0.173324 
312 312 3 0.425 1.27059 -11.9853 -2.89725 
313 313 3 0.425 -1.33885 13.8989 1.38629 
314 314 3 0.425 -0.436942 13.0014 -4.7325 
315 315 3 0.425 0.68635 13.9098 -0.816048 
316 316 2 0.425 0.930951 -6.23683 4.26068 
317 317 2 0.425 -0.174143 8.1599 3.3295 
318 318 3 0.425 3.05198 -11.4323 -0.985782 
319 319 3 0.425 3.34976 -10.6269 -4.53631 
320 320 3 0.425 4.03388 -10.9742 1.40907 
321 321 2 0.425 1.79234 -5.70532 -0.683578 
322 322 2 0.425 2.42472 7.70367 -1.69903 
323 323 3 0.425 2.15534 13.8079 -3.09931 
324 324 3 0.425 2.71119 12.8226 -0.619737 
325 325 3 0.425 3.23762 13.5902 3.12697 
326 326 2 0.425 5.10906 -3.50446 3.10143 
327 327 2 0.425 2.93263 7.59154 3.20451 
328 328 3 0.425 6.48772 -9.08644 3.28032 
329 329 3 0.425 5.61347 -9.42876 -0.0197728 
330 330 3 0.425 6.36965 -9.71933 -2.81249 
331 331 3 0.425 5.36727 12.8724 1.50271 
332 332 3 0.425 5.34226 11.9013 -4.70664 
333 333 2 0.425 4.8905 -4.07848 -1.23459 
334 334 2 0.425 5.76168 5.54282 -0.944471 
335 335 3 0.425 6.06405 12.2949 -0.989896 
336 336 2 0.425 6.24844 -1.32678 3.09237 
337 337 2 0.425 5.88918 5.43875 3.27235 
338 338 3 0.425 8.81113 -7.40092 -0.958567 
339 339 3 0.425 8.76196 -8.05291 -3.2957 
340 340 3 0.425 7.9136 -7.55092 2.75632 
341 341 2 0.425 6.50694 -1.29383 -0.778512 
342 342 2 0.425 6.50558 3.26372 -0.911701 
343 343 2 0.425 6.67329 2.9978 3.28475 
344 344 3 0.425 7.70496 10.3575 -1.61394 
345 345 3 0.425 7.54893 11.5037 0.717852 
346 346 3 0.425 7.11967 11.0517 3.36674 
347 347 3 0.425 10.6549 -4.93437 3.28498 
348 348 3 0.425 9.74809 -5.49032 -0.528543 
349 349 3 0.425 10.8643 -5.53008 -3.18483 
350 350 3 0.425 9.38954 9.59515 0.82952 
351 351 3 0.425 9.98544 9.30074 -3.21303 
352 352 3 0.425 11.0532 7.68698 -1.00427 
353 353 3 0.425 11.7914 -3.65674 -1.08983 
354 354 3 0.425 11.2687 -2.50966 -4.7699 
355 355 3 0.425 12.1154 -2.41302 1.49265 
356 356 3 0.425 12.3911 5.87978 -2.51958 
357 357 3 0.425 11.3004 5.51564 -0.554012 
358 358 3 0.425 11.5043 6.39293 3.16529 
359 359 3 0.425 11.8375 0.791394 3.17377 
360 360 3 0.425 12.3905 0.428861 0.751932 
361 361 3 0.425 11.0835 -0.0619427 -1.7236 
362 362 3 0.425 11.769 2.80702 2.42434 
363 363 3 0.425 12.3668 3.23516 -3.43047 
364 364 3 0.425 11.8128 3.57623 -1.15923 
365 365 1 1.575 -36.3386 -46.6417 -3.72581 
366 366 1 1.575 -36.479 -46.6716 1.72414 
367 367 1 1.575 -36.2766 -44.1004 0.495538 
368 368 1 1.575 -36.2105 -44.1624 -2.45236 
369 369 1 1.575 -35.9914 -49.2076 -2.60387 
370 370 1 1.575 -35.8536 -49.1658 0.365545 
371 371 1 1.575 -35.8169 -41.5735 -3.68106 
372 372 1 1.575 -35.6127 -41.5733 1.75155 
373 373 1 1.575 -34.9831 -51.6223 1.53499 
374 374 1 1.575 -35.0392 -51.5882 -3.91573 
375 375 1 1.575 -34.5089 -39.3143 0.412418 
376 376 1 1.575 -34.6368 -39.3395 -2.38768 
377 377 1 1.575 -33.5958 -53.7411 -2.61312 
378 378 1 1.575 -33.587 -53.6985 0.33566 
379 379 1 1.575 -32.8302 -37.4057 -3.67009 
380 380 1 1.575 -32.7527 -37.4141 1.82739 
381 381 1 1.575 -31.2239 -55.0504 1.56154 
382 382 1 1.575 -31.1467 -55.1251 -3.95481 
383 383 1 1.575 -30.6095 -36.0799 0.604022 
384 384 1 1.575 -30.6412 -36.0638 -2.33479 
385 385 1 1.575 -28.6406 -55.6489 -2.54972 
386 386 1 1.575 -28.6538 -55.7349 0.333521 
387 387 1 1.575 -28.5494 -34.766 -3.72052 
388 388 1 1.575 -28.3391 -34.8268 1.8763 
389 389 1 1.575 -26.1931 -55.7039 1.66981 
390 390 1 1.575 -26.0343 -55.9339 -3.94093 
391 391 1 1.575 -25.8421 -34.2446 0.542901 
392 392 1 1.575 -26.0384 -34.3633 -2.44662 
393 393 1 1.575 -23.5886 -55.5705 -2.64292 
394 394 1 1.575 -23.662 -55.3586 0.303651 
395 395 1 1.575 -23.416 -34.4734 -3.71684 
396 396 1 1.575 -23.3121 -34.4894 1.7937 
397 397 1 1.575 -21.3078 -54.3498 1.67595 
398 398 1 1.575 -21.1708 -54.544 -3.82456 
399 399 1 1.575 -20.8967 -35.6212 0.586867 
400 400 1 1.575 -20.946 -35.7592 -2.23596 
401 401 1 1.575 -19.0936 -53.1427 -2.50103 
402 402 1 1.575 -19.1513 -53.1294 0.417596 
403 403 1 1.575 -18.8468 -36.9841 -3.66372 
404 404 1 1.575 -18.8282 -36.9612 1.85001 
405 405 1 1.575 -17.4733 -50.9945 1.68889 
406 406 1 1.575 -17.3681 -51.109 -3.82558 
407 407 1 1.575 -17.2875 -38.8249 0.501523 
408 408 1 1.575 -17.1412 -39.0315 -2.34244 
409 409 1 1.575 -16.4151 -48.8735 -2.46248 
410 410 1 1.575 -16.2939 -48.7472 0.425515 
411 411 1 1.575 -16.0573 -41.2508 -3.70789 
412 412 1 1.575 -16.0153 -41.2498 1.74739 
413 413 1 1.575 -15.7224 -46.3425 1.79554 
414 414 1 1.575 -15.7469 -46.417 -3.81463 
415 415 1 1.575 -15.6452 -43.7787 -2.38277 
416 416 1 1.575 -15.6991 -43.8167 0.486746 
417 417 4 -1.05 -35.3443 -45.6809 3.2293 
418 418 4 -1.05 -35.3763 -45.9069 0.290144 
419 419 4 -1.05 -35.3701 -45.7827 -2.27552 
420 420 4 -1.05 -35.1739 -48.2305 1.85945 
421 421 4 -1.05 -35.3689 -48.2941 -4.00144 
422 422 4 -1.05 -35.1287 -48.0364 -1.10306 
423 423 4 -1.05 -35.18 -43.4095 -1.06621 
424 424 4 -1.05 -35.2306 -43.3951 -3.92865 
425 425 4 -1.05 -35.3208 -43.4396 1.85672 
426 426 4 -1.05 -34.5003 -50.4011 -2.55504 
427 427 4 -1.05 -34.353 -50.5381 0.190248 
428 428 4 -1.05 -34.4683 -50.3653 3.13492 
429 429 4 -1.05 -34.4327 -41.1539 3.27222 
430 430 4 -1.05 -34.5959 -41.3017 0.267164 
431 431 4 -1.05 -34.5797 -41.1863 -2.28989 
432 432 4 -1.05 -33.3293 -52.4829 1.83024 
433 433 4 -1.05 -33.391 -52.5096 -4.09665 
434 434 4 -1.05 -33.3549 -52.3451 -1.24875 
435 435 4 -1.05 -33.2113 -39.0996 -0.92836 
436 436 4 -1.05 -33.3707 -39.2579 -3.8602 
437 437 4 -1.05 -33.3579 -39.2616 1.93569 
438 438 4 -1.05 -31.4798 -53.9217 -2.42996 
439 439 4 -1.05 -31.5013 -53.7844 0.0885606 
440 440 4 -1.05 -31.6013 -53.7832 3.09879 
441 441 4 -1.05 -31.36 -37.7665 3.34803 
442 442 4 -1.05 -31.5531 -37.7588 0.428724 
443 443 4 -1.05 -31.5031 -37.8027 -2.17809 
444 444 4 -1.05 -29.3107 -54.5743 1.80895 
445 445 4 -1.05 -29.228 -54.6677 -4.0716 
446 446 4 -1.05 -29.4077 -54.5357 -1.19292 
447 447 4 -1.05 -29.363 -36.5769 -0.89094 
448 448 4 -1.05 -29.5447 -36.4824 -3.78751 
449 449 4 -1.05 -29.5244 -36.6422 2.04743 
450 450 4 -1.05 -26.9551 -54.8881 -2.42091 
451 451 4 -1.05 -27.012 -54.7261 0.185769 
452 452 4 -1.05 -27.1325 -54.7772 2.96511 
453 453 4 -1.05 -27.2663 -35.5875 3.23736 
454 454 4 -1.05 -27.3775 -35.4514 0.412719 
455 455 4 -1.05 -27.5213 -35.4729 -2.22517 
456 456 4 -1.05 -24.6598 -54.538 1.81747 
457 457 4 -1.05 -24.6056 -54.6851 -4.0351 
458 458 4 -1.05 -24.7564 -54.5023 -1.17789 
459 459 4 -1.05 -25.0523 -35.4663 -1.01425 
460 460 4 -1.05 -25.1849 -35.1331 -3.9124 
461 461 4 -1.05 -25.053 -35.2027 1.96311 
462 462 4 -1.05 -22.2648 -54.0075 -2.34159 
463 463 4 -1.05 -22.4539 -53.9127 0.241052 
464 464 4 -1.05 -22.5411 -53.8743 3.09786 
465 465 4 -1.05 -22.827 -35.8479 3.30712 
466 466 4 -1.05 -22.929 -35.7794 0.347647 
467 467 4 -1.05 -22.8171 -35.8187 -2.19647 
468 468 4 -1.05 -20.3817 -52.7269 1.89906 
469 469 4 -1.05 -20.25 -52.8067 -3.91118 
470 470 4 -1.05 -20.4619 -52.8283 -0.931908 
471 471 4 -1.05 -20.7937 -37.0142 -0.879746 
472 472 4 -1.05 -20.7834 -36.7485 -3.80766 
473 473 4 -1.05 -20.7513 -36.7726 2.07392 
474 474 4 -1.05 -18.5693 -51.1958 -2.34448 
475 475 4 -1.05 -18.6188 -51.2042 0.166141 
476 476 4 -1.05 -18.8067 -51.1646 3.12412 
477 477 4 -1.05 -18.9939 -38.4822 3.46778 
478 478 4 -1.05 -19.0155 -38.2528 0.41057 
479 479 4 -1.05 -18.9341 -38.2183 -2.18481 
480 480 4 -1.05 -17.5316 -49.0364 1.83808 
481 481 4 -1.05 -17.6568 -49.1869 -4.07945 
482 482 4 -1.05 -17.5855 -49.2336 -1.07085 
483 483 4 -1.05 -17.6491 -40.2674 -0.99545 
484 484 4 -1.05 -17.6136 -40.2333 -3.86152 
485 485 4 -1.05 -17.5613 -39.9889 2.0206 
486 486 4 -1.05 -16.8751 -46.9208 -2.31146 
487 487 4 -1.05 -16.8114 -46.9359 0.225082 
488 488 4 -1.05 -16.86 -47.0495 3.27425 
489 489 4 -1.05 -16.9435 -42.3961 3.20891 
490 490 4 -1.05 -16.7304 -42.3254 0.271311 
491 491 4 -1.05 -16.826 -42.2015 -2.29157 
492 492 4 -1.05 -16.5847 -44.5333 1.95738 
493 493 4 -1.05 -16.5552 -44.6386 -3.97361 
494 494 4 -1.05 -16.7566 -44.6563 -1.08633 
495 495 6 -0.95 -37.5377 -47.1891 3.30411 
496 496 6 -0.95 -37.5165 -47.8639 0.607493 
497 497 6 -0.95 -37.4017 -47.6312 -2.46967 
498 498 6 -0.95 -37.5849 -45.1219 1.56705 
499 499 6 -0.95 -37.4054 -44.9054 -3.67269 
500 500 6 -0.95 -37.5449 -44.5485 -1.05186 
501 501 6 -0.95 -36.8752 -50.0303 -1.14081 
502 502 6 -0.95 -36.914 -50.4925 -3.80514 
503 503 6 -0.95 -36.6326 -50.5502 1.50639 
504 504 6 -0.95 -37.1263 -42.2903 -2.49478 
505 505 6 -0.95 -37.2426 -42.2568 0.709077 
506 506 6 -0.95 -37.0397 -41.8896 3.36727 
507 507 6 -0.95 -35.8445 -52.5993 3.10532 
508 508 6 -0.95 -35.5047 -53.0483 0.464244 
509 509 6 -0.95 -35.6276 -52.9351 -2.60097 
510 510 6 -0.95 -36.1434 -39.5798 1.84241 
511 511 6 -0.95 -36.1411 -39.5428 -3.60522 
512 512 6 -0.95 -35.801 -39.0581 -0.905677 
513 513 6 -0.95 -33.8885 -54.9131 -1.21977 
514 514 6 -0.95 -33.2119 -55.4009 -3.7344 
515 515 6 -0.95 -33.2029 -55.2583 1.30842 
516 516 5 -0.95 -33.125 -46.3851 -1.13538 
517 517 5 -0.95 -33.0222 -48.0604 3.27896 
518 518 5 -0.95 -33.2221 -44.3723 3.05795 
519 519 6 -0.95 -34.2184 -37.1804 -2.51608 
520 520 6 -0.95 -34.383 -37.2284 0.547985 
521 521 6 -0.95 -33.9522 -36.9799 3.2103 
522 522 5 -0.95 -32.3675 -49.8953 -1.19867 
523 523 5 -0.95 -32.7877 -42.5849 -0.97039 
524 524 6 -0.95 -31.1299 -56.3956 3.13487 
525 525 5 -0.95 -31.3991 -51.2299 3.08095 
526 526 5 -0.95 -31.9534 -41.0533 3.25764 
527 527 6 -0.95 -30.5512 -56.4666 0.389591 
528 528 6 -0.95 -30.4698 -56.5543 -2.67244 
529 529 6 -0.95 -32.1272 -35.6006 1.77056 
530 530 6 -0.95 -32.1345 -35.6881 -3.57034 
531 531 6 -0.95 -31.7262 -35.4443 -0.8436 
532 532 5 -0.95 -30.0856 -51.9965 -1.39639 
533 533 5 -0.95 -30.7718 -39.9054 -0.850381 
534 534 6 -0.95 -28.347 -57.0701 -1.11774 
535 535 6 -0.95 -27.6742 -56.9644 -3.73065 
536 536 6 -0.95 -27.738 -56.9201 1.51715 
537 537 5 -0.95 -28.4691 -52.5197 3.10616 
538 538 5 -0.95 -28.9074 -38.6858 3.4702 
539 539 6 -0.95 -29.9268 -34.246 -2.4083 
540 540 6 -0.95 -29.7864 -34.294 0.58851 
541 541 6 -0.95 -29.4469 -34.0833 3.20986 
542 542 5 -0.95 -26.5205 -52.6135 -1.34358 
543 543 5 -0.95 -27.0626 -37.687 -0.955218 
544 544 6 -0.95 -25.4702 -56.9888 3.03703 
545 545 6 -0.95 -24.9559 -56.7743 0.424403 
546 546 6 -0.95 -25.0685 -56.9168 -2.74856 
547 547 6 -0.95 -27.0852 -33.2557 1.73983 
548 548 6 -0.95 -27.3278 -33.3204 -3.66508 
549 549 6 -0.95 -26.3727 -33.2007 -0.956393 
550 550 5 -0.95 -24.6885 -52.3475 3.34431 
551 551 5 -0.95 -25.4629 -37.4126 3.33721 
552 552 6 -0.95 -22.771 -56.3827 -1.0676 
553 553 6 -0.95 -22.337 -56.2546 -3.92659 
554 554 6 -0.95 -22.3209 -56.2764 1.5458 
555 555 5 -0.95 -22.6604 -51.6762 -1.20105 
556 556 5 -0.95 -24.1359 -37.8307 -0.946519 
557 557 6 -0.95 -24.0982 -33.2056 -2.57712 
558 558 6 -0.95 -24.0007 -33.3207 0.507126 
559 559 6 -0.95 -23.6263 -33.2927 3.20281 
560 560 5 -0.95 -21.3678 -50.8348 3.39129 
561 561 5 -0.95 -22.3953 -38.3897 3.32983 
562 562 6 -0.95 -20.3446 -55.2592 3.12161 
563 563 6 -0.95 -19.9074 -54.9389 0.499377 
564 564 6 -0.95 -19.697 -54.9518 -2.59553 
565 565 6 -0.95 -21.4178 -34.1853 1.67908 
566 566 6 -0.95 -21.5221 -34.0777 -3.55719 
567 567 5 -0.95 -20.1374 -49.4144 -1.28868 
568 568 5 -0.95 -20.8052 -39.6137 -0.997061 
569 569 6 -0.95 -20.769 -34.344 -0.890795 
570 570 5 -0.95 -19.3381 -47.6111 3.08441 
571 571 5 -0.95 -19.7216 -40.9417 3.10038 
572 572 6 -0.95 -17.9317 -53.5561 -1.0244 
573 573 6 -0.95 -17.4628 -53.0998 -3.7453 
574 574 6 -0.95 -17.5875 -53.1646 1.59687 
575 575 5 -0.95 -18.9658 -46.0225 -0.939481 
576 576 5 -0.95 -19.1246 -42.3785 -1.02925 
577 577 5 -0.95 -18.8357 -44.2355 3.12094 
578 578 6 -0.95 -18.7876 -35.6636 -2.32735 
579 579 6 -0.95 -18.9447 -35.5335 0.679897 
580 580 6 -0.95 -18.585 -35.8232 3.31308 
581 581 6 -0.95 -15.97 -51.2194 3.22871 
582 582 6 -0.95 -16.0397 -50.6335 0.559359 
583 583 6 -0.95 -15.8502 -50.6906 -2.65063 
584 584 6 -0.95 -16.9513 -37.4003 1.68374 
585 585 6 -0.95 -16.7018 -37.5093 -3.63318 
586 586 6 -0.95 -16.4841 -37.9483 -0.95662 
587 587 6 -0.95 -14.9791 -48.5693 -1.06595 
588 588 6 -0.95 -14.9809 -48.1763 -3.65996 
589 589 6 -0.95 -14.8993 -48.1429 1.67334 
590 590 6 -0.95 -15.3923 -39.8291 -2.65395 
591 591 6 -0.95 -15.2028 -40.0464 0.50366 
592 592 6 -0.95 -15.1737 -40.4477 3.28769 
593 593 6 -0.95 -14.5004 -45.8513 3.212 
594 594 6 -0.95 -14.6052 -45.4934 0.472572 
595 595 6 -0.95 -14.637 -45.4397 -2.4291 
596 596 6 -0.95 -14.616 -42.575 1.72877 
597 597 6 -0.95 -14.6518 -42.7155 -3.65712 
598 598 6 -0.95 -14.5365 -43.1769 -0.95221 
599 599 7 2.1 -34.6914 -46.4974 -1.04162 
600 600 7 2.1 -34.4709 -48.7248 3.18463 
601 601 7 2.1 -34.7552 -44.1681 3.16156 
602 602 7 2.1 -33.6427 -50.7925 -1.20099 
603 603 7 2.1 -34.2213 -42.1514 -1.07104 
604 604 7 2.1 -32.4109 -52.4234 3.12 
605 605 7 2.1 -33.1863 -40.1117 3.27736 
606 606 7 2.1 -30.6202 -53.5113 -1.19735 
607 607 7 2.1 -31.7104 -38.6841 -0.922069 
608 608 7 2.1 -28.5076 -54.0914 3.08856 
609 609 7 2.1 -29.8374 -37.3547 3.39846 
610 610 7 2.1 -26.2912 -54.1707 -1.18483 
611 611 7 2.1 -27.7766 -36.2894 -0.912925 
612 612 7 2.1 -24.108 -53.8328 3.16277 
613 613 7 2.1 -25.7048 -35.9353 3.21659 
614 614 7 2.1 -22.0193 -53.0901 -1.14025 
615 615 7 2.1 -23.7094 -36.2451 -0.92316 
616 616 7 2.1 -20.2176 -51.8892 3.19927 
617 617 7 2.1 -21.7106 -36.9957 3.3708 
618 618 7 2.1 -18.7992 -50.2371 -1.07902 
619 619 7 2.1 -19.89 -38.3282 -0.940654 
620 620 7 2.1 -17.8708 -48.2435 3.15415 
621 621 7 2.1 -18.5175 -39.9555 3.34757 
622 622 7 2.1 -17.4389 -46.0699 -1.0847 
623 623 7 2.1 -17.6229 -41.8528 -1.00793 
624 624 7 2.1 -17.3295 -43.8937 3.30111 
625 625 3 0.425 -38.4263 -46.7046 3.40028 
626 626 3 0.425 -38.2487 -48.2652 1.18134 
627 627 3 0.425 -37.4952 -47.287 -1.53534 
628 628 3 0.425 -38.4901 -45.3228 1.07743 
629 629 3 0.425 -38.3204 -44.9222 -3.21388 
630 630 3 0.425 -38.1849 -43.7612 -1.06206 
631 631 3 0.425 -37.8721 -49.7802 -0.995948 
632 632 3 0.425 -37.71 -51.0119 -3.44306 
633 633 3 0.425 -36.8094 -50.3337 2.52029 
634 634 3 0.425 -37.1654 -41.7506 -1.59651 
635 635 3 0.425 -38.1473 -42.3125 1.21222 
636 636 3 0.425 -37.4433 -42.7715 3.58918 
637 637 3 0.425 -36.8703 -52.6142 3.11656 
638 638 3 0.425 -36.1872 -53.7013 0.921349 
639 639 3 0.425 -35.9872 -52.741 -1.69112 
640 640 3 0.425 -37.1075 -39.5575 1.55026 
641 641 3 0.425 -35.9643 -39.0495 -4.46242 
642 642 3 0.425 -36.3138 -38.1614 -0.91424 
643 643 3 0.425 -33.2646 -55.745 -1.29193 
644 644 3 0.425 -33.5311 -56.1946 -3.18941 
645 645 3 0.425 -33.6176 -55.3091 2.27817 
646 646 2 0.425 -32.5938 -47.2353 -1.32435 
647 647 2 0.425 -32.1504 -48.5912 3.25686 
648 648 2 0.425 -32.9348 -45.3597 2.99287 
649 649 3 0.425 -34.9827 -36.5767 -2.86912 
650 650 3 0.425 -34.1227 -36.7588 -0.340099 
651 651 3 0.425 -34.8241 -37.5349 3.13856 
652 652 2 0.425 -31.388 -50.2398 -1.19976 
653 653 2 0.425 -32.4488 -43.5611 -1.06683 
654 654 3 0.425 -31.7221 -57.2511 3.18241 
655 655 2 0.425 -30.4393 -51.4239 2.89297 
656 656 2 0.425 -32.0932 -42.0985 3.27261 
657 657 3 0.425 -30.831 -56.525 -0.583276 
658 658 3 0.425 -30.3772 -57.425 -3.25217 
659 659 3 0.425 -32.0133 -35.2309 2.72348 
660 660 3 0.425 -32.7302 -34.919 -3.19972 
661 661 3 0.425 -32.721 -35.3331 -0.810635 
662 662 2 0.425 -29.0979 -51.8203 -1.6973 
663 663 2 0.425 -31.2045 -40.7841 -0.521042 
664 664 3 0.425 -29.0023 -57.8607 -1.03376 
665 665 3 0.425 -27.5863 -57.8888 -3.31848 
666 666 3 0.425 -28.1869 -57.1617 2.42931 
667 667 2 0.425 -27.5611 -52.1031 2.95417 
668 668 2 0.425 -29.3392 -39.5913 3.67919 
669 669 3 0.425 -29.6137 -33.9438 -1.49393 
670 670 3 0.425 -30.4308 -33.5409 0.862543 
671 671 3 0.425 -29.6479 -33.1016 3.22445 
672 672 2 0.425 -25.7609 -51.9614 -1.2634 
673 673 2 0.425 -27.5555 -38.5496 -1.1118 
674 674 3 0.425 -25.9497 -57.8719 3.00199 
675 675 3 0.425 -24.6312 -57.5949 0.9739 
676 676 3 0.425 -25.4847 -57.1029 -1.82748 
677 677 3 0.425 -27.5954 -32.3813 1.4518 
678 678 3 0.425 -27.018 -33.2548 -4.67433 
679 679 3 0.425 -25.8581 -32.3098 -1.00537 
680 680 2 0.425 -24.5316 -51.627 2.6677 