# This file is created by imo_withASE.py SR 01/04/2022 - and this is not a joke !
4004 atoms 
1144 bonds 
2002 angles 
7 atom types 
2 bond types 
2 angle types 
-100.0 100.0 xlo xhi 
-100.0 100.0 ylo yhi  
-46.474999999999994 46.474999999999994 zlo zhi 
0.0 0.0 0.0 xy xz yz 

 Masses 

1 26.9815385   #Al
2 1.008   #Hin
3 1.008   #Hout
4 15.999   #Obr
5 15.999   #Oin
6 15.999   #Oout
7 28.085   #Si

 Atoms  # full 

1 1 1 1.575 -10.4548 0.12556 -44.6106 
2 2 1 1.575 -10.4466 0.258109 -41.7155 
3 3 1 1.575 -10.2569 -2.38787 -45.9877 
4 4 1 1.575 -10.1851 -2.20809 -40.3706 
5 5 1 1.575 -9.9634 2.63281 -45.9341 
6 6 1 1.575 -9.99691 2.70494 -40.2073 
7 7 1 1.575 -9.3913 -4.63347 -44.5626 
8 8 1 1.575 -9.52711 -4.65658 -41.6871 
9 9 1 1.575 -9.1777 5.05779 -44.5223 
10 10 1 1.575 -9.24363 5.10915 -41.598 
11 11 1 1.575 -8.06632 -6.82118 -45.9385 
12 12 1 1.575 -8.2275 -6.90978 -40.4498 
13 13 1 1.575 -7.68335 7.26056 -45.8964 
14 14 1 1.575 -7.88049 7.21514 -40.1491 
15 15 1 1.575 -6.39462 -8.60684 -44.6059 
16 16 1 1.575 -6.39977 -8.74335 -41.7395 
17 17 1 1.575 -5.8384 8.99679 -44.356 
18 18 1 1.575 -5.94754 8.95562 -41.5076 
19 19 1 1.575 -3.94413 -9.70109 -45.8932 
20 20 1 1.575 -3.96722 -9.64836 -40.3578 
21 21 1 1.575 -3.40186 10.01 -45.82 
22 22 1 1.575 -3.58625 10.052 -40.2121 
23 23 1 1.575 -1.55309 -10.2665 -44.5548 
24 24 1 1.575 -1.53589 -10.3439 -41.6452 
25 25 1 1.575 -1.02353 10.6993 -44.4078 
26 26 1 1.575 -1.15903 10.6463 -41.5709 
27 27 1 1.575 1.00757 -10.5723 -45.8749 
28 28 1 1.575 0.987792 -10.297 -40.3284 
29 29 1 1.575 1.53036 10.5898 -45.8357 
30 30 1 1.575 1.49962 10.5827 -40.1907 
31 31 1 1.575 3.55021 -9.68265 -44.4932 
32 32 1 1.575 3.49871 -9.77261 -41.6767 
33 33 1 1.575 3.88316 9.85541 -44.3176 
34 34 1 1.575 3.87895 9.78777 -41.5757 
35 35 1 1.575 5.76557 -8.54599 -45.8093 
36 36 1 1.575 5.84389 -8.79742 -40.3004 
37 37 1 1.575 6.14639 8.68605 -45.7374 
38 38 1 1.575 6.16388 8.59327 -40.2113 
39 39 1 1.575 7.75439 -7.01234 -44.4701 
40 40 1 1.575 7.75942 -6.99348 -41.7292 
41 41 1 1.575 7.92245 7.06015 -44.2612 
42 42 1 1.575 8.23861 6.9653 -41.4611 
43 43 1 1.575 9.40017 -5.05503 -45.8834 
44 44 1 1.575 9.41787 -4.93724 -40.3962 
45 45 1 1.575 9.24585 4.97286 -45.8038 
46 46 1 1.575 9.43819 4.6933 -40.3052 
47 47 1 1.575 10.4608 -2.55305 -44.6556 
48 48 1 1.575 10.3818 -2.52802 -41.7931 
49 49 1 1.575 10.2783 2.46447 -44.7172 
50 50 1 1.575 10.2883 2.31109 -41.8233 
51 51 1 1.575 10.5454 -0.0102603 -46.0529 
52 52 1 1.575 10.5086 -0.0930921 -40.3594 
53 53 3 0.425 -12.5318 -0.922527 -45.4973 
54 54 3 0.425 -11.664 -1.54721 -43.0075 
55 55 3 0.425 -12.3095 -1.06696 -41.02 
56 56 3 0.425 -12.2232 2.0031 -44.8971 
57 57 3 0.425 -12.257 1.68114 -40.9867 
58 58 3 0.425 -11.5652 1.19194 -38.8815 
59 59 3 0.425 -11.8762 -4.15479 -45.0474 
60 60 3 0.425 -11.9584 -3.93329 -41.2823 
61 61 3 0.425 -10.7609 -4.39623 -38.9558 
62 62 3 0.425 -11.5817 4.80133 -45.5098 
63 63 3 0.425 -10.9695 4.09568 -42.9135 
64 64 3 0.425 -11.4987 4.91322 -40.7044 
65 65 3 0.425 -10.4571 -6.88058 -45.1403 
66 66 3 0.425 -9.67124 -6.68533 -43.1577 
67 67 3 0.425 -10.7985 -6.64416 -41.0991 
68 68 3 0.425 -10.1475 7.15128 -45.2654 
69 69 3 0.425 -10.3277 7.53455 -41.3348 
70 70 3 0.425 -9.85402 6.53669 -38.7768 
71 71 3 0.425 -9.01071 -8.95927 -45.0692 
72 72 3 0.425 -9.01899 -9.12803 -41.6046 
73 73 3 0.425 -8.15812 -8.98365 -39.0248 
74 74 3 0.425 -8.11271 9.71546 -45.5029 
75 75 3 0.425 -7.95332 8.93016 -43.1035 
76 76 3 0.425 -8.09418 9.8001 -40.7353 
77 77 2 0.425 -6.74381 -0.467086 -38.2677 
78 78 2 0.425 -6.40033 -2.17864 -43.1231 
79 79 2 0.425 -6.55702 0.998249 -43.0703 
80 80 3 0.425 -6.17298 -11.0734 -45.5187 
81 81 3 0.425 -5.60075 -10.5361 -43.2384 
82 82 3 0.425 -6.32468 -11.1748 -41.0869 
83 83 2 0.425 -5.73614 -4.16185 -38.8693 
84 84 2 0.425 -6.11141 2.75006 -39.0094 
85 85 3 0.425 -5.52586 11.4313 -45.1762 
86 86 3 0.425 -5.4334 11.3698 -40.6869 
87 87 3 0.425 -5.6446 10.3491 -38.4451 
88 88 2 0.425 -4.72899 -5.13845 -43.0013 
89 89 2 0.425 -5.23976 4.24263 -43.4795 
90 90 2 0.425 -3.73633 -5.89192 -38.8253 
91 91 2 0.425 -4.4662 5.26611 -38.7072 
92 92 3 0.425 -3.16817 -12.0615 -45.1652 
93 93 3 0.425 -3.39656 -12.0235 -41.1497 
94 94 3 0.425 -2.93299 -11.6001 -38.9547 
95 95 3 0.425 -2.67408 12.3887 -45.2578 
96 96 3 0.425 -2.78182 11.7253 -43.1859 
97 97 3 0.425 -2.94433 12.4543 -40.7107 
98 98 2 0.425 -2.24718 -6.38157 -43.5721 
99 99 2 0.425 -2.94876 6.37631 -43.0665 
100 100 2 0.425 -0.402994 -6.7418 -38.2449 
101 101 2 0.425 -1.51101 6.72372 -38.2806 
102 102 3 0.425 -0.611054 -12.464 -45.3651 
103 103 3 0.425 0.0154306 -11.7097 -43.2315 
104 104 3 0.425 -0.303085 -12.3883 -40.8223 
105 105 3 0.425 0.551767 12.7727 -44.886 
106 106 3 0.425 0.32573 12.7675 -41.0349 
107 107 3 0.425 -0.0772216 11.7484 -38.7951 
108 108 2 0.425 1.15721 -6.46574 -43.5653 
109 109 2 0.425 -0.0788021 6.84248 -43.0907 
110 110 2 0.425 3.04284 -5.84119 -39.1302 
111 111 2 0.425 1.85873 6.70174 -39.0265 
112 112 3 0.425 2.98566 -11.9646 -45.3038 
113 113 3 0.425 2.61178 -12.0543 -41.2434 
114 114 3 0.425 2.96354 -11.1447 -39.0737 
115 115 3 0.425 3.37305 12.2089 -45.1082 
116 116 3 0.425 2.58773 11.5526 -42.8714 
117 117 3 0.425 3.42435 12.2607 -40.4534 
118 118 2 0.425 4.39904 -5.0581 -42.7671 
119 119 2 0.425 3.66878 5.72708 -43.8265 
120 120 2 0.425 5.52256 -3.89292 -39.3178 
121 121 2 0.425 4.70696 5.12929 -38.4686 
122 122 3 0.425 5.43207 -10.9764 -44.8662 
123 123 3 0.425 5.47113 -10.1577 -42.9369 
124 124 3 0.425 5.34547 -11.2434 -40.5556 
125 125 2 0.425 6.23359 -2.50882 -43.7468 
126 126 2 0.425 5.67222 4.02592 -43.2726 
127 127 3 0.425 6.02208 10.9684 -45.1431 
128 128 3 0.425 6.11227 10.9657 -40.9832 
129 129 3 0.425 5.30297 10.3756 -38.8185 
130 130 2 0.425 6.60111 -1.08729 -39.1925 
131 131 2 0.425 6.49696 2.34359 -38.6848 
132 132 2 0.425 6.61566 0.438271 -43.4993 
133 133 3 0.425 7.98305 -9.39973 -45.2978 
134 134 3 0.425 8.01759 -9.74273 -41.4332 
135 135 3 0.425 7.89634 -8.83021 -38.8805 
136 136 3 0.425 8.35452 9.53103 -45.2405 
137 137 3 0.425 7.59916 9.13132 -42.6714 
138 138 3 0.425 8.49628 9.26912 -40.8714 
139 139 3 0.425 10.1057 -7.68927 -45.3663 
140 140 3 0.425 9.78169 -6.52585 -43.3102 
141 141 3 0.425 10.2323 -7.15023 -41.1208 
142 142 3 0.425 10.3043 7.29208 -45.0756 
143 143 3 0.425 10.6207 6.95751 -40.9154 
144 144 3 0.425 9.76432 6.79281 -38.5788 
145 145 3 0.425 11.8583 -4.93099 -45.0865 
146 146 3 0.425 11.8593 -4.53039 -41.391 
147 147 3 0.425 11.3762 -3.9544 -38.8863 
148 148 3 0.425 11.7458 4.40694 -45.4067 
149 149 3 0.425 10.9951 4.29199 -42.904 
150 150 3 0.425 11.9165 4.1453 -40.8151 
151 151 3 0.425 12.5398 -1.54496 -45.6955 
152 152 3 0.425 12.2038 -1.33164 -43.3299 
153 153 3 0.425 12.4479 -1.59904 -40.8938 
154 154 3 0.425 12.5473 1.47828 -45.2068 
155 155 3 0.425 12.5812 1.06966 -41.2692 
156 156 3 0.425 11.4921 1.53332 -38.8217 
157 157 6 -0.95 -11.614 -0.847031 -45.8769 
158 158 6 -0.95 -11.6272 -0.531096 -43.0878 
159 159 6 -0.95 -11.4937 -0.775601 -40.497 
160 160 6 -0.95 -11.2419 1.90189 -44.5501 
161 161 6 -0.95 -11.3633 1.87662 -41.4989 
162 162 6 -0.95 -11.4016 2.25051 -38.8825 
163 163 6 -0.95 -11.0235 -3.60042 -44.8193 
164 164 6 -0.95 -11.0715 -3.48578 -41.606 
165 165 6 -0.95 -11.1012 -3.42786 -38.9799 
166 166 6 -0.95 -10.5871 4.67913 -45.7722 
167 167 6 -0.95 -10.4188 4.92811 -43.0698 
168 168 6 -0.95 -10.5764 4.65843 -40.387 
169 169 6 -0.95 -9.93115 -6.21061 -45.6792 
170 170 6 -0.95 -10.155 -5.76848 -43.22 
171 171 6 -0.95 -10.1966 -6.04968 -40.5226 
172 172 4 -1.05 -9.35781 0.787823 -46.0394 
173 173 4 -1.05 -9.31029 0.978305 -43.0756 
174 174 4 -1.05 -9.3747 0.899448 -40.0873 
175 175 4 -1.05 -9.39712 -1.42743 -44.4876 
176 176 4 -1.05 -9.37691 -1.39363 -41.8728 
177 177 4 -1.05 -9.41686 -1.29679 -38.7708 
178 178 6 -0.95 -9.21696 7.08391 -44.7896 
179 179 6 -0.95 -9.44443 6.99358 -41.4871 
180 180 6 -0.95 -9.19464 7.30606 -38.7984 
181 181 4 -1.05 -8.83748 3.14122 -44.375 
182 182 4 -1.05 -8.8922 3.11002 -41.7151 
183 183 4 -1.05 -8.83693 3.21513 -38.7276 
184 184 4 -1.05 -8.78315 -3.64663 -46.0994 
185 185 4 -1.05 -8.87139 -3.50008 -43.0883 
186 186 4 -1.05 -8.76344 -3.58248 -40.1655 
187 187 4 -1.05 -7.98484 5.12853 -46.0179 
188 188 4 -1.05 -7.85088 5.28797 -43.1169 
189 189 4 -1.05 -7.99252 5.23733 -40.1175 
190 190 6 -0.95 -8.40549 -8.2373 -44.6835 
191 191 6 -0.95 -8.44481 -8.36903 -41.771 
192 192 6 -0.95 -8.74306 -8.16339 -39.0448 
193 193 4 -1.05 -7.70164 -5.66261 -44.435 
194 194 4 -1.05 -7.77143 -5.64955 -41.8105 
195 195 4 -1.05 -7.91707 -5.64091 -38.9377 
196 196 5 -0.95 -7.3105 0.328648 -38.7152 
197 197 5 -0.95 -7.16194 -1.48422 -43.1536 
198 198 5 -0.95 -6.92368 1.97365 -42.9866 
199 199 6 -0.95 -7.31861 9.17157 -45.76 
200 200 6 -0.95 -7.08757 9.48486 -43.0211 
201 201 6 -0.95 -7.43194 9.11975 -40.34 
202 202 5 -0.95 -6.53674 -3.50059 -38.7706 
203 203 5 -0.95 -6.28247 3.74213 -38.7791 
204 204 4 -1.05 -6.60332 7.15984 -44.3347 
205 205 4 -1.05 -6.61145 7.09462 -41.7767 
206 206 4 -1.05 -6.54128 7.07888 -38.8093 
207 207 4 -1.05 -6.3053 -7.40885 -46.0351 
208 208 4 -1.05 -6.32913 -7.27827 -43.1261 
209 209 4 -1.05 -6.40061 -7.5007 -40.1566 
210 210 6 -0.95 -5.9992 -10.0878 -45.8879 
211 211 6 -0.95 -6.49117 -9.98189 -43.2296 
212 212 6 -0.95 -6.19558 -10.2565 -40.6802 
213 213 5 -0.95 -5.69117 -4.76518 -42.9853 
214 214 5 -0.95 -5.29749 5.2352 -43.1173 
215 215 6 -0.95 -4.96032 10.8051 -44.6108 
216 216 6 -0.95 -5.03379 10.6233 -41.2823 
217 217 6 -0.95 -4.8205 10.8575 -38.6342 
218 218 4 -1.05 -4.59659 8.42168 -45.8471 
219 219 4 -1.05 -4.62608 8.61411 -42.9696 
220 220 4 -1.05 -4.73323 8.45452 -40.0404 
221 221 5 -0.95 -4.7887 -5.93003 -39.0028 
222 222 5 -0.95 -4.15376 6.19783 -38.8249 
223 223 4 -1.05 -4.32689 -8.62281 -44.3592 
224 224 4 -1.05 -4.3694 -8.57107 -41.776 
225 225 4 -1.05 -4.46247 -8.52155 -38.9252 
226 226 6 -0.95 -3.32852 -11.1759 -44.711 
227 227 6 -0.95 -3.41217 -11.0987 -41.5841 
228 228 6 -0.95 -3.73708 -11.0734 -38.9569 
229 229 5 -0.95 -3.09161 -6.73069 -43.2305 
230 230 5 -0.95 -2.33353 7.20717 -43.1124 
231 231 4 -1.05 -2.5193 9.47435 -44.2729 
232 232 4 -1.05 -2.5972 9.39215 -41.6472 
233 233 4 -1.05 -2.47905 9.35947 -38.8109 
234 234 6 -0.95 -2.14076 11.6153 -45.5973 
235 235 6 -0.95 -1.77021 11.7797 -43.0209 
236 236 6 -0.95 -2.47343 11.5989 -40.317 
237 237 4 -1.05 -2.00435 -9.19872 -45.9872 
238 238 4 -1.05 -2.13214 -9.0254 -43.1043 
239 239 4 -1.05 -2.00958 -9.24678 -40.1468 
240 240 5 -0.95 -1.27471 -7.19599 -38.5804 
241 241 5 -0.95 -0.828432 7.36529 -38.751 
242 242 6 -0.95 -0.637334 -11.561 -45.7748 
243 243 6 -0.95 -1.01139 -11.564 -43.1552 
244 244 6 -0.95 -0.537814 -11.5043 -40.4047 
245 245 4 -1.05 -0.198341 9.762 -45.9047 
246 246 4 -1.05 -0.148015 9.68907 -42.9317 
247 247 4 -1.05 -0.287396 9.70507 -39.9963 
248 248 4 -1.05 0.240297 -9.61405 -44.3909 
249 249 4 -1.05 0.1912 -9.43817 -41.8264 
250 250 4 -1.05 0.0838332 -9.40959 -38.8559 
251 251 6 -0.95 0.664572 11.8286 -44.5939 
252 252 6 -0.95 0.545745 11.8287 -41.3505 
253 253 6 -0.95 0.936553 11.6777 -38.7704 
254 254 5 -0.95 0.456073 -7.2365 -43.4025 
255 255 5 -0.95 0.821938 7.29331 -42.9471 
256 256 4 -1.05 2.0073 9.32287 -44.1703 
257 257 4 -1.05 2.00249 9.29456 -41.5918 
258 258 4 -1.05 2.13803 9.38931 -38.7052 
259 259 6 -0.95 2.41981 -11.3503 -44.7081 
260 260 6 -0.95 2.22221 -11.1678 -41.5518 
261 261 6 -0.95 1.95949 -11.3536 -38.9515 
262 262 4 -1.05 2.48972 -9.11123 -46.0088 
263 263 4 -1.05 2.38472 -9.02706 -43.1028 
264 264 4 -1.05 2.45078 -8.88581 -40.1984 
265 265 5 -0.95 2.49399 -6.63386 -38.7916 
266 266 5 -0.95 2.80175 6.83577 -38.7198 
267 267 6 -0.95 3.29889 11.311 -45.5561 
268 268 6 -0.95 3.53522 11.1163 -42.9181 
269 269 6 -0.95 3.33721 11.2666 -40.2904 
270 270 4 -1.05 4.12958 8.60876 -45.8151 
271 271 4 -1.05 4.19506 8.46841 -42.9101 
272 272 4 -1.05 4.19415 8.56264 -39.997 
273 273 5 -0.95 3.97224 -5.98462 -42.965 
274 274 5 -0.95 4.53017 5.8059 -43.1749 
275 275 4 -1.05 4.60103 -8.13058 -44.3488 
276 276 4 -1.05 4.63714 -8.21795 -41.7379 
277 277 4 -1.05 4.58835 -8.16129 -38.9842 
278 278 6 -0.95 4.94722 -10.4339 -45.5621 
279 279 6 -0.95 4.59567 -10.617 -43.0298 
280 280 6 -0.95 4.71325 -10.5053 -40.3365 
281 281 5 -0.95 5.45427 -4.90706 -39.2146 
282 282 5 -0.95 5.65539 4.7859 -38.7126 
283 283 6 -0.95 5.79081 10.1977 -44.5169 
284 284 6 -0.95 5.82191 10.078 -41.3894 
285 285 6 -0.95 6.21555 9.91731 -38.9177 
286 286 4 -1.05 6.08507 7.52355 -44.2262 
287 287 4 -1.05 6.13237 7.3653 -41.6971 
288 288 4 -1.05 6.28861 7.29015 -38.7206 
289 289 4 -1.05 6.60461 -6.72006 -46.0153 
290 290 4 -1.05 6.41042 -6.90936 -43.0406 
291 291 4 -1.05 6.6876 -6.83615 -40.2519 
292 292 5 -0.95 6.50899 -3.41749 -43.3139 
293 293 5 -0.95 6.55694 3.45496 -43.0358 
294 294 6 -0.95 7.28369 -8.88154 -44.7259 
295 295 6 -0.95 7.2984 -9.01378 -41.4947 
296 296 6 -0.95 6.89659 -9.31184 -38.891 
297 297 5 -0.95 7.03734 -2.02731 -39.1596 
298 298 5 -0.95 7.20777 1.59987 -38.8081 
299 299 5 -0.95 7.36011 -0.249681 -43.3034 
300 300 4 -1.05 7.53946 5.81674 -45.885 
301 301 4 -1.05 7.85604 5.71967 -42.8643 
302 302 4 -1.05 7.86165 5.71337 -39.9336 
303 303 6 -0.95 8.00973 8.59368 -45.5652 
304 304 6 -0.95 8.34552 8.39879 -42.8657 
305 305 6 -0.95 8.17955 8.44863 -40.3092 
306 306 4 -1.05 8.13431 -5.13275 -44.4653 
307 307 4 -1.05 8.06801 -5.06421 -41.903 
308 308 4 -1.05 8.07536 -5.15128 -38.8998 
309 309 4 -1.05 8.729 3.85413 -44.3697 
310 310 4 -1.05 8.91829 3.71781 -41.8252 
311 311 4 -1.05 8.80375 3.57134 -38.8562 
312 312 4 -1.05 9.31365 -3.0698 -46.0871 
313 313 4 -1.05 9.07194 -3.06737 -43.2163 
314 314 4 -1.05 9.03285 -3.0705 -40.3331 
315 315 6 -0.95 9.26271 -7.15555 -45.6601 
316 316 6 -0.95 9.09076 -7.24419 -43.1199 
317 317 6 -0.95 9.47398 -6.78964 -40.6217 
318 318 4 -1.05 9.38024 1.58424 -46.1574 
319 319 4 -1.05 9.3522 1.34206 -43.2485 
320 320 4 -1.05 9.38452 1.45115 -40.2666 
321 321 4 -1.05 9.6065 -0.820835 -44.4854 
322 322 4 -1.05 9.572 -0.836919 -41.8948 
323 323 4 -1.05 9.37633 -0.855558 -39.003 
324 324 6 -0.95 9.85936 6.50974 -44.6433 
325 325 6 -0.95 9.97957 6.30245 -41.3813 
326 326 6 -0.95 10.2484 5.92424 -38.654 
327 327 6 -0.95 10.9233 -4.66479 -44.7014 
328 328 6 -0.95 10.9104 -4.38856 -41.6539 
329 329 6 -0.95 10.8057 -4.80521 -38.9736 
330 330 6 -0.95 10.9035 3.91081 -45.7253 
331 331 6 -0.95 11.2921 3.33499 -43.1095 
332 332 6 -0.95 11.0712 3.64603 -40.4675 
333 333 6 -0.95 11.5717 -1.65427 -45.8952 
334 334 6 -0.95 11.7655 -2.24596 -43.2596 
335 335 6 -0.95 11.5482 -1.84375 -40.5068 
336 336 6 -0.95 11.6148 1.18591 -44.8799 
337 337 6 -0.95 11.6149 0.833675 -41.5985 
338 338 6 -0.95 11.6336 0.526384 -38.856 
339 339 7 2.1 -8.85503 0.208538 -38.7822 
340 340 7 2.1 -8.67968 -1.88393 -43.1529 
341 341 7 2.1 -8.44527 2.35847 -43.0488 
342 342 7 2.1 -8.04654 -4.05226 -38.8556 
343 343 7 2.1 -7.71611 4.32919 -38.8136 
344 344 7 2.1 -6.86566 -5.79131 -43.0956 
345 345 7 2.1 -6.6119 6.19796 -43.0907 
346 346 7 2.1 -5.54904 -7.34979 -38.8869 
347 347 7 2.1 -5.02838 7.48681 -38.7752 
348 348 7 2.1 -3.50108 -8.23514 -43.1342 
349 349 7 2.1 -3.06702 8.61294 -42.9282 
350 350 7 2.1 -1.32585 -8.76698 -38.8235 
351 351 7 2.1 -0.909833 8.97502 -38.7557 
352 352 7 2.1 0.787776 -8.79352 -43.1986 
353 353 7 2.1 1.11852 8.83663 -42.9079 
354 354 7 2.1 3.03834 -8.11639 -38.9563 
355 355 7 2.1 3.38496 8.2933 -38.6782 
356 356 7 2.1 4.84359 -7.2504 -43.0164 
357 357 7 2.1 5.17645 7.24627 -42.9231 
358 358 7 2.1 6.68506 -5.87772 -38.9568 
359 359 7 2.1 6.87585 5.83483 -38.7006 
360 360 7 2.1 7.94302 -4.16406 -43.1386 
361 361 7 2.1 7.9794 4.11562 -43.0247 
362 362 7 2.1 8.57501 -2.23653 -39.0402 
363 363 7 2.1 8.73327 1.96713 -38.8875 
364 364 7 2.1 8.90402 -0.157477 -43.1922 
365 365 1 1.575 -10.7247 0.0257055 -36.0758 
366 366 1 1.575 -10.6868 0.209756 -33.2136 
367 367 1 1.575 -10.2903 -2.38097 -37.3895 
368 368 1 1.575 -10.4186 -2.36883 -31.8126 
369 369 1 1.575 -10.1706 2.6005 -37.3498 
370 370 1 1.575 -10.2966 2.59941 -31.8255 
371 371 1 1.575 -9.41888 -4.78235 -36.1002 
372 372 1 1.575 -9.5038 -4.62129 -33.3498 
373 373 1 1.575 -9.2282 5.01663 -36.0258 
374 374 1 1.575 -9.40541 5.04174 -33.0908 
375 375 1 1.575 -8.26331 -6.83887 -37.5602 
376 376 1 1.575 -8.17684 -6.77477 -31.8616 
377 377 1 1.575 -7.84658 7.18141 -37.3031 
378 378 1 1.575 -7.8317 7.13734 -31.8403 
379 379 1 1.575 -6.37848 -8.69161 -36.1826 
380 380 1 1.575 -6.3016 -8.54942 -33.274 
381 381 1 1.575 -5.78869 8.77371 -35.9682 
382 382 1 1.575 -5.86263 8.64837 -33.1838 
383 383 1 1.575 -4.00796 -9.83365 -37.5676 
384 384 1 1.575 -4.06477 -9.81552 -31.9961 
385 385 1 1.575 -3.62337 9.90459 -37.2459 
386 386 1 1.575 -3.46857 9.53514 -31.7634 
387 387 1 1.575 -1.51168 -10.4388 -36.1644 
388 388 1 1.575 -1.62278 -10.4686 -33.303 
389 389 1 1.575 -1.12669 10.3679 -36.0253 
390 390 1 1.575 -1.06667 10.192 -33.2007 
391 391 1 1.575 1.15665 -10.3234 -37.4474 
392 392 1 1.575 0.96721 -10.3528 -31.9564 
393 393 1 1.575 1.48668 10.4331 -37.1581 
394 394 1 1.575 1.45884 10.0602 -31.7766 
395 395 1 1.575 3.54061 -9.77279 -36.1274 
396 396 1 1.575 3.37237 -9.70549 -33.3048 
397 397 1 1.575 4.03977 9.76686 -35.9172 
398 398 1 1.575 4.11828 9.68089 -33.0822 
399 399 1 1.575 5.80824 -8.50562 -37.4866 
400 400 1 1.575 5.70478 -8.65884 -31.9718 
401 401 1 1.575 6.35841 8.56596 -37.2886 
402 402 1 1.575 6.22155 8.40639 -31.6127 
403 403 1 1.575 7.78989 -7.14291 -36.092 
404 404 1 1.575 7.69621 -7.11202 -33.208 
405 405 1 1.575 8.12562 6.84779 -35.8997 
406 406 1 1.575 8.24714 6.91004 -33.108 
407 407 1 1.575 9.29747 -4.98491 -37.4952 
408 408 1 1.575 9.25831 -5.11548 -31.8623 
409 409 1 1.575 9.50292 4.74039 -37.4031 
410 410 1 1.575 9.61284 4.68849 -31.7132 
411 411 1 1.575 9.98128 -2.65116 -36.1534 
412 412 1 1.575 10.0467 -2.66495 -33.25 
413 413 1 1.575 10.3174 2.26688 -36.1018 
414 414 1 1.575 10.3659 2.44271 -33.2076 
415 415 1 1.575 10.3852 -0.229047 -37.4491 
416 416 1 1.575 10.4966 -0.151875 -31.8796 
417 417 3 0.425 -12.5371 -1.33744 -36.7122 
418 418 3 0.425 -11.8549 -1.64786 -34.5752 
419 419 3 0.425 -12.5954 -1.02218 -32.4624 
420 420 3 0.425 -12.562 1.91231 -36.6952 
421 421 3 0.425 -12.502 1.80466 -32.5796 
422 422 3 0.425 -11.7211 1.3298 -30.3771 
423 423 3 0.425 -11.8161 -4.31505 -36.5666 
424 424 3 0.425 -11.9583 -4.33842 -32.5771 
425 425 3 0.425 -11.2057 -4.28702 -30.5027 
426 426 3 0.425 -11.5955 4.8856 -37.0206 
427 427 3 0.425 -11.1953 4.29722 -34.6289 
428 428 3 0.425 -11.9332 4.75017 -32.5728 
429 429 3 0.425 -10.7925 -6.73238 -36.5449 
430 430 3 0.425 -9.4863 -6.83573 -34.5352 
431 431 3 0.425 -10.4497 -6.88534 -32.4847 
432 432 3 0.425 -10.1503 7.63371 -36.5302 
433 433 3 0.425 -10.1863 7.56295 -33.0519 
434 434 3 0.425 -9.95193 6.86496 -30.4513 
435 435 3 0.425 -8.85711 -9.26596 -36.7083 
436 436 3 0.425 -8.6383 -9.225 -32.7112 
437 437 3 0.425 -7.81329 -8.88039 -30.3431 
438 438 3 0.425 -8.16211 9.63753 -36.6035 
439 439 3 0.425 -7.85339 8.64288 -34.5964 
440 440 3 0.425 -8.15339 9.44684 -32.3573 
441 441 2 0.425 -6.74549 -0.673834 -30.5779 
442 442 2 0.425 -6.43648 -2.05142 -34.6223 
443 443 2 0.425 -6.88257 0.960427 -34.7304 
444 444 3 0.425 -6.25092 -11.0419 -37.014 
445 445 3 0.425 -5.83025 -10.7618 -34.7887 
446 446 3 0.425 -6.37888 -11.1177 -32.4868 
447 447 2 0.425 -5.74895 -3.80666 -30.6211 
448 448 2 0.425 -6.53138 2.62124 -30.5224 
449 449 3 0.425 -5.6372 11.2773 -36.0307 
450 450 3 0.425 -5.27107 11.0316 -32.2971 
451 451 3 0.425 -5.50051 10.2034 -30.3107 
452 452 2 0.425 -4.66868 -4.96714 -34.8811 
453 453 2 0.425 -5.46713 3.83636 -34.6083 
454 454 2 0.425 -3.29168 -6.10225 -30.5163 
455 455 2 0.425 -4.40779 5.05398 -29.8596 
456 456 3 0.425 -3.44802 -12.2389 -36.7996 
457 457 3 0.425 -3.62336 -12.0384 -32.6619 
458 458 3 0.425 -2.82217 -11.4954 -30.4246 
459 459 3 0.425 -2.74611 12.293 -36.7508 
460 460 3 0.425 -2.98372 11.3808 -34.4809 
461 461 3 0.425 -2.68484 12.005 -32.1745 
462 462 2 0.425 -2.15247 -6.35378 -34.5196 
463 463 2 0.425 -3.17451 5.97708 -34.9492 
464 464 2 0.425 -0.453908 -6.69937 -30.7325 
465 465 2 0.425 -1.1452 6.31109 -30.6253 
466 466 3 0.425 -0.411324 -12.5385 -37.0264 
467 467 3 0.425 -0.0579984 -11.9858 -34.7933 
468 468 3 0.425 -0.327789 -12.6284 -32.4144 
469 469 3 0.425 0.466103 12.542 -36.5816 
470 470 3 0.425 0.529621 12.2504 -32.3928 
471 471 3 0.425 -0.159367 11.3978 -30.3104 
472 472 2 0.425 1.32091 -6.56876 -34.8335 
473 473 2 0.425 0.415766 6.87049 -35.3283 
474 474 2 0.425 2.80539 -5.73659 -30.1212 
475 475 2 0.425 1.92493 6.20094 -30.6263 
476 476 3 0.425 2.76351 -12.1564 -36.9471 
477 477 3 0.425 2.70874 -11.9203 -32.4096 
478 478 3 0.425 2.89502 -11.0237 -30.3886 
479 479 3 0.425 3.24348 12.2049 -36.5422 
480 480 3 0.425 2.74093 11.4189 -34.3954 
481 481 3 0.425 3.19032 12.0408 -32.2533 
482 482 2 0.425 4.21015 -5.04262 -34.3165 
483 483 2 0.425 3.52137 5.85869 -34.7047 
484 484 2 0.425 5.51306 -3.83106 -30.336 
485 485 2 0.425 5.00515 4.68813 -30.1854 
486 486 3 0.425 5.38686 -11.2069 -36.7422 
487 487 3 0.425 5.47313 -10.3382 -34.5709 
488 488 3 0.425 5.20433 -11.1454 -32.4792 
489 489 2 0.425 6.10037 -2.80715 -34.5966 
490 490 2 0.425 5.91732 3.65379 -33.9064 
491 491 3 0.425 5.95679 11.0608 -36.7417 
492 492 3 0.425 6.33981 10.7939 -32.3921 
493 493 3 0.425 5.22545 10.2564 -30.4026 
494 494 2 0.425 6.62106 -1.04103 -30.3674 
495 495 2 0.425 6.67226 2.34944 -30.0909 
496 496 2 0.425 6.71307 0.937077 -34.7048 
497 497 3 0.425 7.98946 -9.44307 -36.8799 
498 498 3 0.425 7.80875 -9.6198 -32.868 
499 499 3 0.425 7.65112 -8.36313 -30.7516 
500 500 3 0.425 8.75932 9.21521 -36.8681 
501 501 3 0.425 7.87943 8.94207 -34.2861 
502 502 3 0.425 8.36628 9.36918 -32.2669 
503 503 3 0.425 10.1288 -7.34723 -36.9941 
504 504 3 0.425 9.85144 -6.95374 -34.6266 
505 505 3 0.425 10.1529 -7.52044 -32.094 
506 506 3 0.425 10.917 6.62395 -36.2588 
507 507 3 0.425 10.3656 6.23902 -33.9216 
508 508 3 0.425 10.158 6.74887 -30.4856 
509 509 3 0.425 11.4071 -4.51749 -36.9529 
510 510 3 0.425 11.528 -4.62016 -32.6827 
511 511 3 0.425 10.9985 -4.08974 -30.2971 
512 512 3 0.425 11.9446 3.99388 -36.9554 
513 513 3 0.425 11.277 4.28454 -34.9055 
514 514 3 0.425 12.0553 4.35259 -32.5097 
515 515 3 0.425 12.3259 -1.7892 -36.8315 
516 516 3 0.425 11.6067 -1.31464 -34.7082 
517 517 3 0.425 12.285 -2.00797 -32.446 
518 518 3 0.425 12.3778 1.0692 -36.7402 
519 519 3 0.425 12.4838 0.938791 -32.6385 
520 520 3 0.425 11.6502 1.47275 -30.393 
521 521 6 -0.95 -11.6999 -0.961972 -37.2056 
522 522 6 -0.95 -11.8232 -0.623092 -34.6405 
523 523 6 -0.95 -11.7472 -0.812573 -31.975 
524 524 6 -0.95 -11.6641 1.84362 -36.1981 
525 525 6 -0.95 -11.6175 1.92829 -33.0522 
526 526 6 -0.95 -11.5066 2.33522 -30.4319 
527 527 6 -0.95 -11.062 -3.73315 -36.216 
528 528 6 -0.95 -11.2887 -3.76766 -33.1502 
529 529 6 -0.95 -11.321 -3.32713 -30.4615 
530 530 6 -0.95 -10.6606 4.50561 -37.228 
531 531 6 -0.95 -10.5572 5.09871 -34.5867 
532 532 6 -0.95 -11.0531 4.64667 -32.026 
533 533 6 -0.95 -10.245 -6.1261 -37.1975 
534 534 6 -0.95 -10.0126 -5.9618 -34.5893 
535 535 6 -0.95 -9.91424 -6.20833 -32.0045 
536 536 4 -1.05 -9.57564 0.888404 -37.5635 
537 537 4 -1.05 -9.51393 0.918506 -34.5825 
538 538 4 -1.05 -9.59746 0.888097 -31.6585 
539 539 4 -1.05 -9.49195 -1.47411 -35.8788 
540 540 4 -1.05 -9.55384 -1.51321 -33.2639 
541 541 4 -1.05 -9.52913 -1.32588 -30.4301 
542 542 6 -0.95 -9.29097 7.25978 -36.1076 
543 543 6 -0.95 -9.29431 7.00493 -33.2273 
544 544 6 -0.95 -9.15069 7.50682 -30.5186 
545 545 4 -1.05 -9.08705 3.03723 -35.8995 
546 546 4 -1.05 -9.20745 3.11396 -33.2559 
547 547 4 -1.05 -9.07146 3.20667 -30.3476 
548 548 4 -1.05 -8.90286 -3.73028 -37.5521 
549 549 4 -1.05 -8.78898 -3.53655 -34.6913 
550 550 4 -1.05 -8.98571 -3.75176 -31.7967 
551 551 4 -1.05 -8.02326 5.25381 -37.5072 
552 552 4 -1.05 -7.88697 5.09313 -34.6941 
553 553 4 -1.05 -8.15582 5.32037 -31.6245 
554 554 6 -0.95 -8.41762 -8.44077 -36.3015 
555 555 6 -0.95 -8.29486 -8.34546 -33.1264 
556 556 6 -0.95 -8.45634 -8.11604 -30.4311 
557 557 4 -1.05 -7.84172 -5.76128 -36.0851 
558 558 4 -1.05 -7.63011 -5.55425 -33.417 
559 559 4 -1.05 -7.80066 -5.60035 -30.456 
560 560 5 -0.95 -7.38786 0.146284 -30.3937 
561 561 5 -0.95 -7.24978 -1.40269 -34.5402 
562 562 5 -0.95 -7.17374 1.93225 -34.5053 
563 563 6 -0.95 -7.4423 9.14628 -37.1682 
564 564 6 -0.95 -7.05945 9.24647 -34.5935 
565 565 6 -0.95 -7.29485 8.99979 -32.0389 
566 566 5 -0.95 -6.6877 -3.32521 -30.6103 
567 567 5 -0.95 -6.48377 3.6284 -30.3276 
568 568 4 -1.05 -6.52387 6.91805 -35.9405 
569 569 4 -1.05 -6.6331 6.85889 -33.3494 
570 570 4 -1.05 -6.46362 6.90068 -30.3668 
571 571 4 -1.05 -6.40376 -7.4958 -37.6207 
572 572 4 -1.05 -6.35734 -7.26688 -34.7625 
573 573 4 -1.05 -6.25124 -7.38123 -31.7598 
574 574 6 -0.95 -5.97859 -10.1113 -37.4142 
575 575 6 -0.95 -6.47564 -9.96347 -34.7439 
576 576 6 -0.95 -6.05026 -10.229 -32.096 
577 577 5 -0.95 -5.66036 -4.78967 -35.0184 
578 578 5 -0.95 -5.31401 4.88407 -34.7104 
579 579 6 -0.95 -5.00811 10.5051 -35.8896 
580 580 6 -0.95 -4.90625 10.27 -32.8977 
581 581 6 -0.95 -4.54156 10.4901 -30.3487 
582 582 4 -1.05 -4.76148 8.37812 -37.5236 
583 583 4 -1.05 -4.54816 8.07361 -34.6448 
584 584 4 -1.05 -4.56223 8.04359 -31.6372 
585 585 5 -0.95 -4.31362 -6.04343 -30.6469 
586 586 5 -0.95 -4.05083 5.89067 -30.2317 
587 587 4 -1.05 -4.38653 -8.57348 -36.0447 
588 588 4 -1.05 -4.39376 -8.63831 -33.4759 
589 589 4 -1.05 -4.49653 -8.64223 -30.4635 
590 590 6 -0.95 -3.42433 -11.2701 -36.3544 
591 591 6 -0.95 -3.48299 -11.0951 -33.1329 
592 592 6 -0.95 -3.75629 -11.1688 -30.5431 
593 593 5 -0.95 -3.09968 -6.74046 -34.5997 
594 594 5 -0.95 -2.43538 6.69531 -34.8043 
595 595 4 -1.05 -2.53024 9.011 -35.9021 
596 596 4 -1.05 -2.57066 9.06055 -33.3284 
597 597 4 -1.05 -2.4302 8.78739 -30.4104 
598 598 6 -0.95 -2.32014 11.4378 -37.078 
599 599 6 -0.95 -1.94584 11.3558 -34.4969 
600 600 6 -0.95 -2.28494 11.1144 -31.8685 
601 601 4 -1.05 -2.19025 -9.29045 -37.5474 
602 602 4 -1.05 -2.18923 -9.15054 -34.743 
603 603 4 -1.05 -2.1438 -9.30622 -31.8172 
604 604 5 -0.95 -1.36769 -7.14005 -30.4786 
605 605 5 -0.95 -0.514983 7.085 -30.3559 
606 606 6 -0.95 -0.506698 -11.5974 -37.323 
607 607 6 -0.95 -1.05465 -11.6547 -34.765 
608 608 6 -0.95 -0.543909 -11.7283 -32.076 
609 609 4 -1.05 -0.283255 9.58922 -37.4604 
610 610 4 -1.05 -0.159371 9.31003 -34.6071 
611 611 4 -1.05 -0.288047 9.22648 -31.6488 
612 612 4 -1.05 0.236183 -9.50767 -36.0161 
613 613 4 -1.05 0.0765647 -9.44266 -33.4672 
614 614 4 -1.05 0.0727872 -9.33845 -30.5279 
615 615 6 -0.95 0.618838 11.6404 -36.0986 
616 616 6 -0.95 0.650568 11.3839 -32.9598 
617 617 6 -0.95 0.87601 11.2863 -30.322 
618 618 5 -0.95 0.470324 -7.18686 -34.801 
619 619 5 -0.95 1.20801 7.16913 -34.7631 
620 620 4 -1.05 2.12513 9.27812 -35.8569 
621 621 4 -1.05 2.11221 9.09418 -33.2455 
622 622 4 -1.05 2.11612 8.95843 -30.3801 
623 623 6 -0.95 2.40581 -11.3671 -36.3396 
624 624 6 -0.95 2.2802 -11.2387 -32.9994 
625 625 6 -0.95 1.91193 -11.2999 -30.5134 
626 626 4 -1.05 2.57824 -8.98934 -37.6601 
627 627 4 -1.05 2.31438 -8.96538 -34.7848 
628 628 4 -1.05 2.41294 -8.88842 -31.8348 
629 629 5 -0.95 2.26674 -6.62357 -30.3931 
630 630 5 -0.95 2.92408 6.49879 -30.5583 
631 631 6 -0.95 3.27623 11.3899 -37.104 
632 632 6 -0.95 3.68262 10.9909 -34.5312 
633 633 6 -0.95 3.37589 11.0695 -31.8952 
634 634 4 -1.05 4.27635 8.62337 -37.4256 
635 635 4 -1.05 4.39102 8.44993 -34.4577 
636 636 4 -1.05 4.20856 8.48026 -31.6403 
637 637 5 -0.95 3.93033 -5.97748 -34.7003 
638 638 5 -0.95 4.53415 5.92506 -34.4527 
639 639 4 -1.05 4.65334 -8.08269 -36.0839 
640 640 4 -1.05 4.59654 -8.16304 -33.4841 
641 641 4 -1.05 4.38963 -8.08346 -30.5696 
642 642 6 -0.95 4.80864 -10.483 -37.2668 
643 643 6 -0.95 4.49304 -10.6271 -34.641 
644 644 6 -0.95 4.80944 -10.3558 -32.0876 
645 645 5 -0.95 5.3563 -4.78751 -30.4928 
646 646 5 -0.95 5.97469 4.39524 -30.248 
647 647 6 -0.95 5.90188 10.2002 -36.1261 
648 648 6 -0.95 5.98694 9.97011 -32.8813 
649 649 6 -0.95 6.14307 9.75505 -30.3029 
650 650 4 -1.05 6.21321 7.37619 -35.8043 
651 651 4 -1.05 6.31303 7.36501 -33.2018 
652 652 4 -1.05 6.29354 7.03485 -30.403 
653 653 4 -1.05 6.58368 -6.88397 -37.6992 
654 654 4 -1.05 6.41796 -6.93378 -34.696 
655 655 4 -1.05 6.50791 -6.81813 -31.7292 
656 656 5 -0.95 6.25367 -3.82254 -34.6805 
657 657 5 -0.95 6.70305 3.25508 -34.4178 
658 658 6 -0.95 7.24334 -8.97521 -36.2965 
659 659 6 -0.95 7.07255 -8.99462 -33.2549 
660 660 6 -0.95 6.92442 -9.0599 -30.5927 
661 661 5 -0.95 7.11332 -1.97619 -30.2118 
662 662 5 -0.95 7.40874 1.67911 -30.227 
663 663 5 -0.95 7.18652 0.0432893 -34.6115 
664 664 4 -1.05 7.79735 5.65605 -37.3941 
665 665 4 -1.05 7.86302 5.58902 -34.6043 
666 666 4 -1.05 7.91356 5.56164 -31.6854 
667 667 6 -0.95 8.18061 8.38742 -37.095 
668 668 6 -0.95 8.54598 8.14664 -34.4867 
669 669 6 -0.95 8.13914 8.50543 -31.7042 
670 670 4 -1.05 8.0177 -5.21557 -35.9839 
671 671 4 -1.05 8.02726 -5.19517 -33.4006 
672 672 4 -1.05 7.91747 -5.22598 -30.3123 
673 673 4 -1.05 8.79843 3.62249 -35.9567 
674 674 4 -1.05 8.98526 3.71578 -33.4 
675 675 4 -1.05 9.08677 3.57847 -30.3608 
676 676 4 -1.05 8.96958 -2.9792 -37.6695 
677 677 4 -1.05 8.7287 -3.13347 -34.741 
678 678 4 -1.05 8.95529 -3.08729 -31.6917 
679 679 6 -0.95 9.22087 -7.07122 -37.385 