# This file is created by imo_withASE.py SR 01/04/2022 - and this is not a joke !
4312 atoms 
1232 bonds 
2156 angles 
7 atom types 
2 bond types 
2 angle types 
-100.0 100.0 xlo xhi 
-100.0 100.0 ylo yhi 
-46.474999999999994 46.474999999999994 zlo zhi 
0.0 0.0 0.0 xy xz yz 

 Masses 

1 26.9815385   #Al
2 1.008   #Hin
3 1.008   #Hout
4 15.999   #Obr
5 15.999   #Oin
6 15.999   #Oout
7 28.085   #Si

 Atoms  # full 

1 1 1 1.575 -10.9634 0.21465 -45.9554 
2 2 1 1.575 -11.0076 0.160724 -40.2784 
3 3 1 1.575 -10.6993 -2.3903 -44.5291 
4 4 1 1.575 -10.723 -2.2878 -41.7823 
5 5 1 1.575 -10.6415 2.74405 -44.436 
6 6 1 1.575 -10.712 2.70809 -41.6995 
7 7 1 1.575 -9.9647 -4.70524 -45.8487 
8 8 1 1.575 -9.76353 -4.57289 -40.3152 
9 9 1 1.575 -9.76574 5.08308 -45.9011 
10 10 1 1.575 -9.88948 5.20597 -40.3616 
11 11 1 1.575 -8.63192 -6.77785 -44.4811 
12 12 1 1.575 -8.48427 -6.7192 -41.6403 
13 13 1 1.575 -8.54512 7.45328 -44.6295 
14 14 1 1.575 -8.76995 7.30845 -41.7981 
15 15 1 1.575 -7.02489 -8.73154 -45.797 
16 16 1 1.575 -6.92098 -8.72693 -40.0983 
17 17 1 1.575 -6.81509 9.14808 -45.9941 
18 18 1 1.575 -6.80486 9.04678 -40.3115 
19 19 1 1.575 -5.02407 -10.0428 -44.4256 
20 20 1 1.575 -4.91201 -10.0179 -41.631 
21 21 1 1.575 -4.61403 10.3864 -44.5911 
22 22 1 1.575 -4.62834 10.422 -41.6748 
23 23 1 1.575 -2.66054 -11.0415 -45.8192 
24 24 1 1.575 -2.58659 -10.8433 -40.2674 
25 25 1 1.575 -2.19221 11.294 -45.881 
26 26 1 1.575 -2.14604 11.012 -40.3364 
27 27 1 1.575 -0.00285181 -11.4368 -44.5738 
28 28 1 1.575 -0.122695 -11.3913 -41.7123 
29 29 1 1.575 0.158771 11.5055 -44.5037 
30 30 1 1.575 0.177229 11.3485 -41.799 
31 31 1 1.575 2.4682 -11.2297 -45.8707 
32 32 1 1.575 2.44366 -11.1431 -40.3082 
33 33 1 1.575 2.74309 11.185 -45.9385 
34 34 1 1.575 2.6428 11.2068 -40.2958 
35 35 1 1.575 4.81583 -10.3575 -44.5005 
36 36 1 1.575 4.86671 -10.2922 -41.6347 
37 37 1 1.575 5.03793 10.1975 -44.4838 
38 38 1 1.575 5.09402 10.2327 -41.6403 
39 39 1 1.575 6.85328 -8.99453 -45.797 
40 40 1 1.575 7.02144 -9.0901 -40.2682 
41 41 1 1.575 7.29432 8.94345 -45.8385 
42 42 1 1.575 7.25109 8.67603 -40.2241 
43 43 1 1.575 8.82166 -7.31065 -44.5331 
44 44 1 1.575 8.80272 -7.22427 -41.6805 
45 45 1 1.575 8.83881 6.88623 -44.6012 
46 46 1 1.575 8.93162 6.84048 -41.7365 
47 47 1 1.575 10.0695 -5.10941 -45.9637 
48 48 1 1.575 9.98211 -5.09449 -40.2412 
49 49 1 1.575 10.262 4.7136 -45.9155 
50 50 1 1.575 10.1398 4.67032 -40.2433 
51 51 1 1.575 10.9784 -2.77224 -44.5517 
52 52 1 1.575 10.89 -2.69714 -41.7104 
53 53 1 1.575 11.1135 2.33934 -44.5873 
54 54 1 1.575 10.8677 2.25102 -41.7522 
55 55 1 1.575 11.2165 -0.236236 -45.889 
56 56 1 1.575 11.2504 -0.194486 -40.3317 
57 57 3 0.425 -12.989 -1.34163 -45.0488 
58 58 3 0.425 -12.9603 -1.43059 -41.202 
59 59 3 0.425 -11.9721 -1.56747 -38.8555 
60 60 3 0.425 -12.8267 1.4717 -45.1683 
61 61 3 0.425 -12.2174 1.30237 -43.1496 
62 62 3 0.425 -12.9892 1.77995 -40.7973 
63 63 3 0.425 -12.3592 -4.07231 -45.3975 
64 64 3 0.425 -11.4065 -4.40802 -42.954 
65 65 3 0.425 -12.2322 -4.06176 -40.9664 
66 66 3 0.425 -12.223 4.69584 -44.9463 
67 67 3 0.425 -12.2411 4.73451 -41.1296 
68 68 3 0.425 -11.7358 4.13097 -38.9508 
69 69 3 0.425 -11.1572 -6.8348 -44.7469 
70 70 3 0.425 -10.9433 -6.5197 -40.8032 
71 71 3 0.425 -10.4044 -6.79241 -38.7966 
72 72 3 0.425 -11.0144 7.4826 -45.5357 
73 73 3 0.425 -10.61 6.58422 -43.2545 
74 74 3 0.425 -11.064 7.39701 -40.6234 
75 75 3 0.425 -9.42495 -9.13391 -45.3315 
76 76 3 0.425 -8.26878 -8.82704 -43.0604 
77 77 3 0.425 -9.27628 -9.0399 -40.9175 
78 78 3 0.425 -9.07155 9.88267 -45.3393 
79 79 3 0.425 -9.04639 10.017 -41.1366 
80 80 3 0.425 -8.74132 8.98065 -38.7467 
81 81 2 0.425 -7.26545 -0.666868 -42.9482 
82 82 3 0.425 -7.26402 -11.051 -45.1776 
83 83 3 0.425 -7.27403 -11.0183 -41.1189 
84 84 3 0.425 -6.186 -10.6762 -38.8999 
85 85 2 0.425 -6.94551 -2.43199 -38.5727 
86 86 2 0.425 -7.15674 1.52227 -38.4895 
87 87 2 0.425 -6.02758 -3.77139 -43.2266 
88 88 2 0.425 -6.72009 3.04736 -42.9749 
89 89 3 0.425 -6.53051 11.857 -45.4462 
90 90 3 0.425 -6.6993 10.9151 -43.1812 
91 91 3 0.425 -6.78209 11.5004 -40.6407 
92 92 2 0.425 -5.08488 -5.30571 -38.6411 
93 93 2 0.425 -6.07277 4.51116 -39.2566 
94 94 3 0.425 -4.7438 -12.4595 -45.1408 
95 95 3 0.425 -3.79218 -11.8914 -42.9653 
96 96 3 0.425 -4.43276 -12.3842 -40.8724 
97 97 2 0.425 -3.76827 -6.44047 -43.1011 
98 98 2 0.425 -5.40997 5.78679 -43.3111 
99 99 3 0.425 -3.80239 12.8899 -44.9899 
100 100 3 0.425 -3.89333 12.7506 -40.8776 
101 101 3 0.425 -4.08613 12.1007 -38.7867 
102 102 2 0.425 -2.48039 -7.00854 -38.9048 
103 103 2 0.425 -3.56557 6.50999 -38.6124 
104 104 3 0.425 -1.5752 -13.4438 -44.9138 
105 105 3 0.425 -1.63785 -13.1133 -41.1117 
106 106 3 0.425 -1.39202 -12.6655 -38.8456 
107 107 2 0.425 -0.90586 -7.4173 -43.0209 
108 108 2 0.425 -2.33451 7.19746 -42.8392 
109 109 3 0.425 -0.966443 13.4686 -45.3527 
110 110 3 0.425 -1.65768 12.5658 -43.0898 
111 111 3 0.425 -1.05151 13.205 -41.1426 
112 112 2 0.425 0.969903 -7.7791 -39.1289 
113 113 2 0.425 -0.600332 7.56398 -39.1298 
114 114 3 0.425 1.20923 -13.4024 -45.4092 
115 115 3 0.425 1.76449 -12.4968 -42.9983 
116 116 3 0.425 1.54498 -13.3316 -40.7531 
117 117 2 0.425 2.13647 -7.31691 -43.6524 
118 118 2 0.425 1.17344 7.6936 -42.977 
119 119 3 0.425 2.02057 13.4631 -45.1822 
120 120 3 0.425 1.59172 13.41 -41.3652 
121 121 3 0.425 1.29579 12.7176 -38.7925 
122 122 2 0.425 4.02823 -6.51594 -38.7645 
123 123 2 0.425 2.60958 7.25188 -38.6785 
124 124 3 0.425 4.33358 -12.7879 -45.2786 
125 125 3 0.425 4.25707 -12.8517 -41.3774 
126 126 3 0.425 4.56187 -11.8392 -38.8998 
127 127 2 0.425 5.12898 -5.51651 -43.2137 
128 128 2 0.425 4.15338 6.47974 -42.8247 
129 129 3 0.425 4.96485 12.5859 -45.2589 
130 130 3 0.425 4.08504 12.0413 -43.1759 
131 131 3 0.425 4.76486 12.7322 -40.909 
132 132 2 0.425 6.0301 -4.61148 -39.4172 
133 133 2 0.425 5.72073 4.82445 -38.2316 
134 134 3 0.425 6.99803 -11.4575 -45.4016 
135 135 3 0.425 6.96402 -10.4591 -43.2136 
136 136 3 0.425 7.0339 -11.4256 -40.9792 
137 137 2 0.425 6.96893 -2.93246 -43.2828 
138 138 2 0.425 6.53435 4.07809 -43.2035 
139 139 2 0.425 7.55156 -0.979716 -39.0628 
140 140 2 0.425 7.04344 2.12921 -38.8904 
141 141 3 0.425 7.3127 11.2625 -44.9005 
142 142 3 0.425 7.54078 11.1089 -41.2498 
143 143 3 0.425 6.64668 10.7326 -39.0745 
144 144 2 0.425 7.31946 0.360024 -43.5973 
145 145 3 0.425 9.15837 -9.82176 -44.8846 
146 146 3 0.425 9.2878 -9.79787 -41.0456 
147 147 3 0.425 9.21523 -9.00703 -38.8353 
148 148 3 0.425 9.75554 9.21094 -45.136 
149 149 3 0.425 8.7019 8.93765 -42.9779 
150 150 3 0.425 9.83991 9.11541 -40.7176 
151 151 3 0.425 11.3256 -7.38693 -45.6247 
152 152 3 0.425 10.6549 -6.53344 -43.1142 
153 153 3 0.425 11.2103 -7.3003 -40.9087 
154 154 3 0.425 11.3585 6.84504 -45.3847 
155 155 3 0.425 11.4352 6.97767 -41.3718 
156 156 3 0.425 10.4967 6.96028 -39.0728 
157 157 3 0.425 12.4955 -4.6757 -45.01 
158 158 3 0.425 12.4238 -4.52458 -40.9788 
159 159 3 0.425 11.8426 -3.90105 -38.771 
160 160 3 0.425 12.7652 4.04259 -45.3461 
161 161 3 0.425 12.1034 4.18851 -42.9803 
162 162 3 0.425 12.5289 4.17707 -40.8681 
163 163 3 0.425 13.2909 -1.69114 -45.4742 
164 164 3 0.425 12.564 -1.32822 -43.218 
165 165 3 0.425 13.2006 -1.52489 -40.8361 
166 166 3 0.425 13.2971 1.24499 -45.1401 
167 167 3 0.425 13.2051 1.13562 -41.2405 
168 168 3 0.425 12.368 1.82135 -39.0436 
169 169 6 -0.95 -12.0979 -1.03845 -44.7075 
170 170 6 -0.95 -12.1635 -0.938491 -41.6002 
171 171 6 -0.95 -12.1388 -0.577638 -38.8835 
172 172 6 -0.95 -12.0525 1.91855 -45.6804 
173 173 6 -0.95 -11.8277 2.27351 -43.1212 
174 174 6 -0.95 -12.0478 1.90985 -40.4592 
175 175 6 -0.95 -11.5298 -3.59902 -45.723 
176 176 6 -0.95 -11.6729 -3.42035 -43.0479 
177 177 6 -0.95 -11.5237 -3.48053 -40.4786 
178 178 6 -0.95 -11.2446 4.63674 -44.5831 
179 179 6 -0.95 -11.3037 4.63386 -41.6007 
180 180 6 -0.95 -11.3372 5.07257 -38.9478 
181 181 6 -0.95 -10.4214 -6.17444 -44.5382 
182 182 6 -0.95 -10.4444 -5.91323 -41.4353 
183 183 6 -0.95 -10.7322 -5.82569 -38.8896 
184 184 4 -1.05 -9.94402 0.862181 -44.4183 
185 185 4 -1.05 -9.95174 0.827603 -41.7602 
186 186 4 -1.05 -9.92928 1.06654 -38.9131 
187 187 4 -1.05 -9.86697 -1.47301 -46.0085 
188 188 4 -1.05 -9.87229 -1.35386 -43.1093 
189 189 4 -1.05 -9.80871 -1.39976 -40.249 
190 190 6 -0.95 -10.077 7.25206 -45.8183 
191 191 6 -0.95 -10.061 7.43729 -43.1384 
192 192 6 -0.95 -10.1286 7.02859 -40.4869 
193 193 4 -1.05 -9.64486 3.15587 -46.0253 
194 194 4 -1.05 -9.31018 3.27008 -43.0689 
195 195 4 -1.05 -9.58125 3.19974 -40.2617 
196 196 4 -1.05 -9.22089 -3.65654 -44.4001 
197 197 4 -1.05 -9.15777 -3.59468 -41.7766 
198 198 4 -1.05 -9.25502 -3.41835 -38.865 
199 199 6 -0.95 -8.92631 -8.29611 -45.68 
200 200 6 -0.95 -8.99813 -8.12019 -43.0337 
201 201 6 -0.95 -8.87036 -8.19089 -40.4475 
202 202 4 -1.05 -8.73255 5.37116 -44.4126 
203 203 4 -1.05 -8.63556 5.35177 -41.7883 
204 204 4 -1.05 -8.63883 5.43495 -38.8957 
205 205 4 -1.05 -8.31615 -5.64547 -45.9377 
206 206 4 -1.05 -8.25868 -5.53835 -43.0761 
207 207 4 -1.05 -8.0658 -5.64154 -40.1523 
208 208 6 -0.95 -8.28703 9.40846 -44.8416 
209 209 6 -0.95 -8.33789 9.45429 -41.5959 
210 210 6 -0.95 -7.94638 9.58079 -38.9317 
211 211 5 -0.95 -7.78584 0.186121 -43.0895 
212 212 5 -0.95 -7.48841 -1.60763 -38.8732 
213 213 5 -0.95 -7.62183 2.3221 -38.8807 
214 214 4 -1.05 -7.30546 7.19105 -46.0316 
215 215 4 -1.05 -7.43916 7.37648 -43.1933 
216 216 4 -1.05 -7.4688 7.27954 -40.1693 
217 217 5 -0.95 -6.95654 -3.3028 -43.1522 
218 218 5 -0.95 -6.91995 3.99914 -43.2129 
219 219 4 -1.05 -6.89247 -7.45176 -44.3559 
220 220 4 -1.05 -6.70747 -7.31683 -41.848 
221 221 4 -1.05 -6.90911 -7.49632 -38.6722 
222 222 6 -0.95 -6.97048 -10.2541 -44.6208 
223 223 6 -0.95 -6.83945 -10.1345 -41.415 
224 224 6 -0.95 -7.08568 -10.1448 -38.7882 
225 225 5 -0.95 -6.05216 -4.98027 -38.5473 
226 226 5 -0.95 -5.9942 5.50189 -39.0059 
227 227 6 -0.95 -5.9916 11.0971 -45.8081 
228 228 6 -0.95 -5.69999 11.158 -43.075 
229 229 6 -0.95 -6.0162 10.9761 -40.3241 
230 230 4 -1.05 -5.758 8.81602 -44.4214 
231 231 4 -1.05 -5.81088 8.77703 -41.7851 
232 232 4 -1.05 -5.51413 8.64731 -38.9079 
233 233 5 -0.95 -4.77839 -6.23179 -43.2537 
234 234 5 -0.95 -4.94546 6.68251 -43.0129 
235 235 4 -1.05 -5.1693 -8.98583 -45.9722 
236 236 4 -1.05 -5.09733 -8.74632 -43.0875 
237 237 4 -1.05 -5.07635 -8.72777 -40.1076 
238 238 6 -0.95 -4.55125 -11.6137 -45.6168 
239 239 6 -0.95 -4.71199 -11.3567 -42.9523 
240 240 6 -0.95 -4.41337 -11.414 -40.4828 
241 241 4 -1.05 -3.56434 9.92822 -46.0285 
242 242 4 -1.05 -3.49867 9.69415 -43.059 
243 243 4 -1.05 -3.60843 9.69701 -40.2118 
244 244 5 -0.95 -3.47698 -7.15137 -38.675 
245 245 5 -0.95 -3.21284 7.44176 -38.7571 
246 246 6 -0.95 -3.27692 12.1068 -44.6515 
247 247 6 -0.95 -3.38618 12.0183 -41.4533 
248 248 6 -0.95 -3.04606 12.2716 -38.8719 
249 249 4 -1.05 -2.9643 -9.88266 -44.3193 
250 250 4 -1.05 -2.95511 -9.67898 -41.7425 
251 251 4 -1.05 -3.04915 -9.70238 -38.8461 
252 252 5 -0.95 -1.88084 -7.8239 -43.141 
253 253 5 -0.95 -1.61229 7.93023 -43.1521 
254 254 6 -0.95 -1.66475 -12.4234 -44.6092 
255 255 6 -0.95 -1.765 -12.2272 -41.5622 
256 256 6 -0.95 -2.35023 -12.309 -38.8024 
257 257 4 -1.05 -1.37306 10.234 -44.3917 
258 258 4 -1.05 -1.36518 10.1727 -41.891 
259 259 4 -1.05 -1.26269 10.1771 -38.9033 
260 260 6 -0.95 -0.711611 12.5519 -45.7422 
261 261 6 -0.95 -0.632678 12.5341 -43.1813 
262 262 6 -0.95 -0.746012 12.3967 -40.6129 
263 263 4 -1.05 -0.779473 -10.4268 -46.0666 
264 264 4 -1.05 -0.785203 -10.2661 -43.0881 
265 265 4 -1.05 -0.730106 -10.4462 -40.1474 
266 266 5 -0.95 0.0879784 -8.23756 -38.923 
267 267 5 -0.95 0.278896 8.10476 -39.0237 
268 268 4 -1.05 0.844215 10.5311 -46.0084 
269 269 4 -1.05 1.03155 10.4265 -43.1229 
270 270 4 -1.05 0.946997 10.3673 -40.1855 
271 271 6 -0.95 0.959271 -12.5108 -45.7481 
272 272 6 -0.95 0.694374 -12.4774 -43.0926 
273 273 6 -0.95 1.09743 -12.5075 -40.4882 
274 274 4 -1.05 1.54848 -10.3231 -44.4662 
275 275 4 -1.05 1.61539 -10.1978 -41.793 
276 276 4 -1.05 1.47877 -10.4163 -38.8442 
277 277 6 -0.95 2.06752 12.4833 -44.7742 
278 278 6 -0.95 1.82088 12.4533 -41.5613 
279 279 6 -0.95 2.2554 12.399 -38.8679 
280 280 5 -0.95 1.57352 -8.07026 -43.2777 
281 281 5 -0.95 2.12819 8.06049 -42.8192 
282 282 4 -1.05 3.14824 9.95931 -44.4315 
283 283 4 -1.05 3.20225 10.1821 -41.8312 
284 284 4 -1.05 3.19329 9.91641 -38.9435 
285 285 6 -0.95 3.85347 -12.0786 -44.7261 
286 286 6 -0.95 3.76699 -11.9557 -41.6019 
287 287 6 -0.95 3.55379 -12.1196 -38.8823 
288 288 5 -0.95 3.49338 -7.4106 -38.915 
289 289 5 -0.95 3.61617 7.34841 -38.7337 
290 290 4 -1.05 3.79594 -9.80946 -46.0024 
291 291 4 -1.05 3.65638 -9.66787 -43.2027 
292 292 4 -1.05 3.77104 -9.72371 -40.135 
293 293 6 -0.95 4.77016 11.6992 -45.7024 
294 294 6 -0.95 4.98571 11.6152 -43.0549 
295 295 6 -0.95 4.71399 11.7851 -40.467 
296 296 4 -1.05 5.23433 9.04399 -45.9398 
297 297 4 -1.05 5.31168 8.86601 -43.0192 
298 298 4 -1.05 5.16056 9.02128 -40.1594 
299 299 5 -0.95 4.87367 -6.49859 -43.1381 
300 300 5 -0.95 5.16703 6.28189 -42.968 
301 301 4 -1.05 5.76448 -8.56899 -44.3827 
302 302 4 -1.05 5.79859 -8.56632 -41.8043 
303 303 4 -1.05 5.76188 -8.72488 -38.8328 
304 304 6 -0.95 6.31145 -10.7739 -45.7295 
305 305 6 -0.95 6.02742 -10.989 -43.0953 
306 306 6 -0.95 6.30621 -10.7918 -40.4973 
307 307 5 -0.95 6.16026 -5.52153 -38.8764 
308 308 5 -0.95 6.50482 4.82286 -38.8648 
309 309 6 -0.95 7.00553 10.329 -44.5993 
310 310 6 -0.95 7.05645 10.2498 -41.5261 
311 311 6 -0.95 7.35226 9.98807 -38.8763 
312 312 4 -1.05 7.05803 7.55634 -44.323 
313 313 4 -1.05 7.03655 7.60436 -41.7482 
314 314 4 -1.05 7.0909 7.38364 -38.8385 
315 315 5 -0.95 7.21882 -3.92632 -43.04 
316 316 5 -0.95 7.39018 3.49649 -43.2634 
317 317 4 -1.05 7.60009 -7.1207 -45.9791 
318 318 4 -1.05 7.41239 -7.09753 -43.0587 
319 319 4 -1.05 7.63023 -7.15148 -40.1515 
320 320 5 -0.95 7.82573 -1.89995 -38.8237 
321 321 5 -0.95 7.91506 1.55403 -38.6854 
322 322 5 -0.95 8.01315 -0.189699 -43.0237 
323 323 6 -0.95 8.39402 -9.19837 -44.6156 
324 324 6 -0.95 8.50465 -9.28827 -41.4367 
325 325 6 -0.95 8.36385 -9.59425 -38.8257 
326 326 4 -1.05 8.59708 5.76171 -46.056 
327 327 4 -1.05 8.6677 5.70194 -43.1505 
328 328 4 -1.05 8.5633 5.72462 -40.1666 
329 329 4 -1.05 8.9013 -5.34688 -44.4537 
330 330 4 -1.05 8.92234 -5.3368 -41.8185 
331 331 4 -1.05 8.74021 -5.30468 -38.8116 
332 332 6 -0.95 9.1311 8.58888 -45.6634 
333 333 6 -0.95 9.45 8.25624 -43.0003 
334 334 6 -0.95 9.2296 8.37165 -40.331 
335 335 4 -1.05 9.57055 3.73299 -44.5162 
336 336 4 -1.05 9.61619 3.65398 -41.901 
337 337 4 -1.05 9.49376 3.58466 -38.8475 
338 338 4 -1.05 9.88038 -3.22527 -46.0788 
339 339 4 -1.05 9.80386 -3.35479 -43.1698 
340 340 4 -1.05 9.71779 -3.05039 -40.1334 
341 341 6 -0.95 10.348 -7.15549 -45.8694 
342 342 6 -0.95 10.0687 -7.36018 -43.104 
343 343 6 -0.95 10.3867 -7.02972 -40.4243 
344 344 4 -1.05 10.3015 1.40459 -46.1159 
345 345 4 -1.05 10.0772 1.34606 -43.231 
346 346 4 -1.05 10.1862 1.48999 -40.1565 
347 347 4 -1.05 10.2184 -0.932652 -44.3618 
348 348 4 -1.05 10.2523 -0.83344 -41.8593 
349 349 4 -1.05 10.2014 -0.932189 -38.877 
350 350 6 -0.95 10.8317 6.1227 -44.8006 
351 351 6 -0.95 10.8259 6.25169 -41.6886 
352 352 6 -0.95 10.9466 6.02504 -38.9779 
353 353 6 -0.95 11.5714 -4.67192 -44.6059 
354 354 6 -0.95 11.5305 -4.45639 -41.493 
355 355 6 -0.95 11.3722 -4.82128 -38.803 
356 356 6 -0.95 11.9846 3.55244 -45.7299 
357 357 6 -0.95 12.053 3.18731 -43.1021 
358 358 6 -0.95 11.7972 3.69797 -40.4441 
359 359 6 -0.95 12.2936 -1.85676 -45.7468 
360 360 6 -0.95 12.2987 -2.28366 -43.127 
361 361 6 -0.95 12.3215 -1.74231 -40.3469 
362 362 6 -0.95 12.4041 0.900952 -44.7256 
363 363 6 -0.95 12.325 0.874992 -41.5596 
364 364 6 -0.95 12.414 0.764822 -39.0368 
365 365 7 2.1 -9.35074 0.147918 -43.1122 
366 366 7 2.1 -9.07305 -1.85371 -38.8829 
367 367 7 2.1 -9.18525 2.43824 -38.9118 
368 368 7 2.1 -8.33388 -3.94412 -43.0888 
369 369 7 2.1 -8.42781 4.52968 -43.1001 
370 370 7 2.1 -7.2943 -5.97076 -38.7853 
371 371 7 2.1 -7.32295 6.32412 -38.9129 
372 372 7 2.1 -5.84361 -7.37057 -43.1487 
373 373 7 2.1 -5.99049 7.95054 -43.0966 
374 374 7 2.1 -4.17868 -8.53836 -38.7286 
375 375 7 2.1 -3.9068 8.82402 -38.8755 
376 376 7 2.1 -2.11436 -9.37126 -43.131 
377 377 7 2.1 -1.9337 9.44417 -43.1594 
378 378 7 2.1 0.00228596 -9.82385 -38.8183 
379 379 7 2.1 0.236973 9.72043 -38.917 
380 380 7 2.1 2.09349 -9.50745 -43.1529 
381 381 7 2.1 2.3899 9.58611 -43.0483 
382 382 7 2.1 4.21539 -8.8458 -38.9233 
383 383 7 2.1 4.2666 8.73878 -38.8908 
384 384 7 2.1 5.979 -7.59366 -43.0769 
385 385 7 2.1 6.13994 7.51798 -43.0071 
386 386 7 2.1 7.51942 -6.28478 -38.8009 
387 387 7 2.1 7.66145 5.93821 -38.9093 
388 388 7 2.1 8.76665 -4.54256 -43.1124 
389 389 7 2.1 8.79262 4.10986 -43.236 
390 390 7 2.1 9.31745 -2.24473 -38.82 
391 391 7 2.1 9.454 1.92372 -38.8506 
392 392 7 2.1 9.5683 -0.171038 -43.143 
393 393 1 1.575 -11.0384 0.236867 -37.4435 
394 394 1 1.575 -11.001 0.262972 -31.8021 
395 395 1 1.575 -10.8017 -2.26915 -36.1312 
396 396 1 1.575 -10.7981 -2.1749 -33.2774 
397 397 1 1.575 -10.7349 2.88711 -36.1033 
398 398 1 1.575 -10.7916 2.71335 -33.2429 
399 399 1 1.575 -10.0303 -4.67515 -37.576 
400 400 1 1.575 -9.9751 -4.63835 -31.9098 
401 401 1 1.575 -9.93596 5.18944 -37.5484 
402 402 1 1.575 -10.1064 5.2784 -31.8792 
403 403 1 1.575 -8.7608 -6.79751 -36.1633 
404 404 1 1.575 -8.86823 -6.8994 -33.2311 
405 405 1 1.575 -8.60333 7.3221 -36.2105 
406 406 1 1.575 -8.66375 7.33384 -33.3311 
407 407 1 1.575 -7.08894 -8.78277 -37.2776 
408 408 1 1.575 -7.03354 -8.69472 -31.8323 
409 409 1 1.575 -6.71381 9.17859 -37.5571 
410 410 1 1.575 -6.84819 9.04354 -31.8873 
411 411 1 1.575 -4.89003 -10.1345 -35.8843 
412 412 1 1.575 -4.92462 -10.203 -33.0544 
413 413 1 1.575 -4.57813 10.4762 -36.1543 
414 414 1 1.575 -4.72669 10.3091 -33.3021 
415 415 1 1.575 -2.68119 -11.0776 -37.4232 
416 416 1 1.575 -2.66243 -11.0242 -31.6795 
417 417 1 1.575 -2.16954 11.1829 -37.5902 
418 418 1 1.575 -2.31985 11.0389 -31.8646 
419 419 1 1.575 -0.224583 -11.4824 -36.0352 
420 420 1 1.575 -0.186548 -11.5049 -33.174 
421 421 1 1.575 0.198537 11.3385 -36.111 
422 422 1 1.575 0.1503 11.3808 -33.2464 
423 423 1 1.575 2.40703 -11.2513 -37.4636 
424 424 1 1.575 2.37569 -11.3032 -31.8652 
425 425 1 1.575 2.75403 11.0611 -37.4831 
426 426 1 1.575 2.63351 11.0009 -31.8108 
427 427 1 1.575 4.74606 -10.2698 -36.045 
428 428 1 1.575 4.73272 -10.3254 -33.2209 
429 429 1 1.575 4.99059 10.2799 -35.961 
430 430 1 1.575 5.22658 10.1877 -33.1368 
431 431 1 1.575 7.05713 -9.30117 -37.403 
432 432 1 1.575 7.02719 -9.09021 -31.7746 
433 433 1 1.575 7.06269 8.80091 -37.3547 
434 434 1 1.575 7.21185 8.64256 -31.7827 
435 435 1 1.575 8.81154 -7.19666 -36.0058 
436 436 1 1.575 8.75566 -7.19704 -33.2639 
437 437 1 1.575 8.95318 7.10125 -35.9783 
438 438 1 1.575 8.81044 6.92509 -33.1579 
439 439 1 1.575 10.1476 -5.1126 -37.4352 
440 440 1 1.575 10.0615 -5.11514 -31.8061 
441 441 1 1.575 10.2741 4.93632 -37.4705 
442 442 1 1.575 10.2389 4.79375 -31.8242 
443 443 1 1.575 10.9887 -2.63201 -36.089 
444 444 1 1.575 10.8052 -2.5742 -33.1333 
445 445 1 1.575 11.1788 2.4635 -36.1283 
446 446 1 1.575 11.0926 2.36282 -33.2475 
447 447 1 1.575 11.3019 -0.0377959 -37.525 
448 448 1 1.575 11.1542 -0.12314 -31.823 
449 449 3 0.425 -12.9198 -1.29496 -36.4431 
450 450 3 0.425 -12.9593 -1.09591 -32.8322 
451 451 3 0.425 -12.4192 -1.4069 -30.6294 
452 452 3 0.425 -12.8365 1.8205 -36.7323 
453 453 3 0.425 -12.1181 1.27696 -34.8817 
454 454 3 0.425 -13.0274 1.77828 -32.5947 
455 455 3 0.425 -12.3479 -4.23171 -37.0272 
456 456 3 0.425 -11.5645 -4.21933 -34.5416 
457 457 3 0.425 -12.4266 -3.93034 -32.5499 
458 458 3 0.425 -12.3488 4.73865 -36.7131 
459 459 3 0.425 -12.3982 4.59886 -32.6201 
460 460 3 0.425 -11.742 4.11993 -30.5619 
461 461 3 0.425 -11.2501 -6.82554 -36.5918 
462 462 3 0.425 -11.4869 -6.63924 -32.8047 
463 463 3 0.425 -10.5508 -6.71024 -30.2323 
464 464 3 0.425 -11.0631 7.40545 -37.2382 
465 465 3 0.425 -10.6643 6.77703 -34.7956 
466 466 3 0.425 -11.2787 7.26809 -32.6921 
467 467 3 0.425 -9.53555 -9.09468 -36.6474 
468 468 3 0.425 -8.8925 -8.97581 -34.4527 
469 469 3 0.425 -9.61165 -9.03584 -32.0951 
470 470 3 0.425 -9.21546 9.8296 -36.6804 
471 471 3 0.425 -9.03281 9.81412 -32.65 
472 472 3 0.425 -9.17152 9.15118 -30.4303 
473 473 2 0.425 -7.19342 -0.365152 -34.4964 
474 474 3 0.425 -7.04357 -11.2019 -36.4757 
475 475 3 0.425 -7.15581 -11.1426 -32.7562 
476 476 3 0.425 -6.61685 -10.7184 -30.3164 
477 477 2 0.425 -6.95478 -2.37563 -30.2289 
478 478 2 0.425 -7.18963 1.44337 -30.3488 
479 479 2 0.425 -6.32787 -3.85527 -34.122 
480 480 2 0.425 -6.91883 2.92709 -34.4252 
481 481 3 0.425 -6.79378 11.5776 -37.0027 
482 482 3 0.425 -6.71729 10.636 -34.8184 
483 483 3 0.425 -6.85232 11.3859 -32.6896 
484 484 2 0.425 -5.44678 -5.04559 -29.9966 
485 485 2 0.425 -6.47962 4.38067 -30.512 
486 486 3 0.425 -4.69004 -12.4554 -36.6771 
487 487 3 0.425 -3.96201 -12.0321 -34.5494 
488 488 3 0.425 -4.56639 -12.5355 -32.0344 
489 489 2 0.425 -4.02467 -6.40201 -34.8681 
490 490 2 0.425 -4.9185 5.78604 -34.9896 
491 491 3 0.425 -3.84983 12.9403 -36.5924 
492 492 3 0.425 -3.91023 12.7431 -32.7059 
493 493 3 0.425 -4.27135 11.9243 -30.549 
494 494 2 0.425 -2.6261 -7.08642 -30.3329 
495 495 2 0.425 -4.12609 6.69303 -30.0715 
496 496 3 0.425 -1.88073 -13.3226 -36.4123 
497 497 3 0.425 -1.85969 -13.2662 -32.4689 
498 498 3 0.425 -1.05932 -12.4618 -30.2741 
499 499 2 0.425 -0.788823 -7.71603 -34.7958 
500 500 2 0.425 -2.46265 7.29426 -34.6038 
501 501 3 0.425 -0.93711 13.3148 -37.024 
502 502 3 0.425 -1.56891 12.4731 -34.7241 
503 503 3 0.425 -1.35242 13.2174 -32.2162 
504 504 2 0.425 0.984933 -7.56895 -30.6861 
505 505 2 0.425 -0.794675 7.4892 -30.7554 
506 506 3 0.425 1.36654 -13.4319 -36.6763 
507 507 3 0.425 1.42428 -12.6963 -34.596 
508 508 3 0.425 0.962483 -13.4663 -32.1557 
509 509 2 0.425 2.10091 -7.34012 -34.2858 
510 510 2 0.425 0.816485 7.83617 -34.4609 
511 511 3 0.425 1.65256 13.2054 -36.9608 
512 512 3 0.425 1.77937 13.4254 -32.7413 
513 513 3 0.425 1.12609 12.3478 -30.2952 
514 514 2 0.425 3.6841 -6.70613 -30.3361 
515 515 2 0.425 2.64485 7.20274 -30.4142 
516 516 3 0.425 4.24082 -12.5682 -36.6845 
517 517 3 0.425 4.33649 -12.9395 -32.925 
518 518 3 0.425 4.30487 -12.0974 -30.5709 
519 519 2 0.425 5.36073 -5.61254 -34.6362 
520 520 2 0.425 4.15873 6.40069 -34.3479 
521 521 3 0.425 4.34579 12.7013 -36.6774 
522 522 3 0.425 3.98248 11.9414 -34.4331 
523 523 3 0.425 4.69946 12.4928 -32.2304 
524 524 2 0.425 6.38733 -4.40366 -30.0276 
525 525 2 0.425 5.77095 5.06941 -31.0485 
526 526 3 0.425 7.01396 -11.6968 -36.7882 
527 527 3 0.425 6.86192 -10.7266 -34.5585 
528 528 3 0.425 6.91345 -11.5213 -32.601 
529 529 2 0.425 6.91027 -2.86772 -35.2926 
530 530 2 0.425 6.705 4.16026 -34.1658 
531 531 2 0.425 7.4181 -1.05046 -30.299 
532 532 2 0.425 7.13442 2.56279 -30.7036 
533 533 3 0.425 7.18445 11.3056 -36.6373 
534 534 3 0.425 7.63032 10.957 -32.541 
535 535 3 0.425 6.59828 10.6267 -30.5449 
536 536 2 0.425 7.39899 0.73334 -34.3248 
537 537 3 0.425 9.49484 -9.67558 -36.5288 
538 538 3 0.425 9.24518 -9.77598 -32.7816 
539 539 3 0.425 9.14067 -8.75704 -30.7224 
540 540 3 0.425 9.5192 9.26498 -36.5901 
541 541 3 0.425 8.75431 9.03894 -34.464 
542 542 3 0.425 9.50887 9.14681 -32.5165 
543 543 3 0.425 11.1673 -7.45833 -36.6874 
544 544 3 0.425 10.9298 -6.62848 -34.4904 
545 545 3 0.425 11.0045 -7.39383 -32.3444 
546 546 3 0.425 11.4913 6.9458 -36.7131 
547 547 3 0.425 11.5289 6.86787 -32.4404 
548 548 3 0.425 10.8029 6.73787 -30.1139 
549 549 3 0.425 12.6519 -4.62686 -36.6452 
550 550 3 0.425 12.4096 -4.7403 -32.5884 
551 551 3 0.425 11.7438 -3.75746 -30.3517 
552 552 3 0.425 12.8278 4.18089 -37.0374 
553 553 3 0.425 11.9173 4.2956 -34.5507 
554 554 3 0.425 12.5884 4.3035 -32.2808 
555 555 3 0.425 13.1217 -1.64896 -36.9616 
556 556 3 0.425 12.3892 -1.14856 -34.5111 
557 557 3 0.425 13.0702 -1.53628 -32.3484 
558 558 3 0.425 13.3538 1.35116 -36.86 
559 559 3 0.425 13.2347 1.20814 -32.5072 
560 560 3 0.425 12.2891 1.51486 -30.4167 
561 561 6 -0.95 -11.9936 -0.864186 -36.2755 
562 562 6 -0.95 -12.0419 -0.797139 -33.1772 
563 563 6 -0.95 -12.2337 -0.422317 -30.4913 
564 564 6 -0.95 -11.9879 1.88917 -37.2388 
565 565 6 -0.95 -11.9509 2.29098 -34.7276 
566 566 6 -0.95 -12.1193 1.9673 -32.0617 
567 567 6 -0.95 -11.5646 -3.58342 -37.3659 
568 568 6 -0.95 -11.7483 -3.21464 -34.629 
569 569 6 -0.95 -11.6309 -3.43249 -32.1268 
570 570 6 -0.95 -11.4302 4.69964 -36.2771 
571 571 6 -0.95 -11.4865 4.68151 -33.1165 
572 572 6 -0.95 -11.4093 5.04836 -30.5247 
573 573 6 -0.95 -10.62 -6.15204 -36.2777 
574 574 6 -0.95 -10.7086 -6.01242 -33.1023 
575 575 6 -0.95 -10.8632 -5.7554 -30.3888 
576 576 4 -1.05 -9.93349 1.01953 -35.9894 
577 577 4 -1.05 -10.0497 1.04057 -33.3806 
578 578 4 -1.05 -9.94485 1.07188 -30.4789 
579 579 4 -1.05 -9.86328 -1.33653 -37.6133 
580 580 4 -1.05 -9.79236 -1.20047 -34.6537 
581 581 4 -1.05 -9.92867 -1.2848 -31.7388 
582 582 6 -0.95 -10.0981 7.14988 -37.4637 
583 583 6 -0.95 -9.96351 7.52646 -34.8062 
584 584 6 -0.95 -10.4013 7.11816 -32.1889 
585 585 4 -1.05 -9.72559 3.21605 -37.6294 
586 586 4 -1.05 -9.5385 3.32166 -34.6372 
587 587 4 -1.05 -9.73523 3.2612 -31.7598 
588 588 4 -1.05 -9.37753 -3.61932 -35.9164 
589 589 4 -1.05 -9.33907 -3.60073 -33.3824 
590 590 4 -1.05 -9.52852 -3.51682 -30.4644 
591 591 6 -0.95 -8.92195 -8.43927 -37.1753 
592 592 6 -0.95 -9.41445 -8.12248 -34.5402 
593 593 6 -0.95 -8.9642 -8.28807 -31.9151 
594 594 4 -1.05 -8.75709 5.41327 -36.028 
595 595 4 -1.05 -8.77392 5.40267 -33.464 
596 596 4 -1.05 -8.84 5.50913 -30.5292 
597 597 4 -1.05 -8.36822 -5.70758 -37.5667 
598 598 4 -1.05 -8.39816 -5.62881 -34.6826 
599 599 4 -1.05 -8.45531 -5.7041 -31.7543 
600 600 6 -0.95 -8.4092 9.29404 -36.3715 
601 601 6 -0.95 -8.29052 9.25364 -33.117 
602 602 6 -0.95 -8.21463 9.56966 -30.4558 
603 603 5 -0.95 -7.84597 0.417715 -34.6896 
604 604 5 -0.95 -7.72521 -1.67425 -30.4471 
605 605 5 -0.95 -7.68228 2.36136 -30.5023 
606 606 4 -1.05 -7.33644 7.25713 -37.6055 
607 607 4 -1.05 -7.29276 7.26295 -34.7928 
608 608 4 -1.05 -7.56924 7.23881 -31.7812 
609 609 5 -0.95 -7.1049 -3.47307 -34.6589 
610 610 5 -0.95 -7.08398 3.81063 -34.926 
611 611 4 -1.05 -6.89289 -7.48093 -35.8438 
612 612 4 -1.05 -6.88169 -7.44673 -33.2849 
613 613 4 -1.05 -6.98267 -7.30692 -30.3556 
614 614 6 -0.95 -6.80227 -10.2654 -36.1078 
615 615 6 -0.95 -6.83908 -10.2136 -32.9778 
616 616 6 -0.95 -7.35616 -9.97069 -30.4471 
617 617 5 -0.95 -6.29724 -4.78681 -30.4384 
618 618 5 -0.95 -6.33898 5.40512 -30.26 
619 619 6 -0.95 -6.09948 10.9408 -37.3164 
620 620 6 -0.95 -5.81826 11.0948 -34.7303 
621 621 6 -0.95 -6.16372 10.904 -32.1779 
622 622 4 -1.05 -5.67077 8.83736 -35.9664 
623 623 4 -1.05 -5.70222 8.64833 -33.3942 
624 624 4 -1.05 -5.68103 8.59121 -30.4483 
625 625 5 -0.95 -5.01644 -6.25858 -34.6277 
626 626 5 -0.95 -4.67147 6.75634 -34.88 
627 627 4 -1.05 -5.08527 -8.95648 -37.4545 
628 628 4 -1.05 -5.13252 -8.89967 -34.4916 
629 629 4 -1.05 -5.0471 -8.83468 -31.6831 
630 630 6 -0.95 -4.51211 -11.5424 -37.1736 
631 631 6 -0.95 -4.88856 -11.5167 -34.511 
632 632 6 -0.95 -4.53539 -11.5807 -31.8587 
633 633 4 -1.05 -3.59724 9.84446 -37.6477 
634 634 4 -1.05 -3.53091 9.79036 -34.688 
635 635 4 -1.05 -3.77284 9.67769 -31.7448 
636 636 5 -0.95 -3.67335 -7.22164 -30.2535 
637 637 5 -0.95 -3.46358 7.413 -30.3465 
638 638 6 -0.95 -3.476 12.0166 -36.2718 
639 639 6 -0.95 -3.49543 11.9381 -33.1278 
640 640 6 -0.95 -3.28648 12.1081 -30.5323 
641 641 4 -1.05 -2.94208 -9.93406 -35.8687 
642 642 4 -1.05 -2.96887 -9.93912 -33.2425 
643 643 4 -1.05 -3.10789 -9.76243 -30.3988 
644 644 5 -0.95 -1.75236 -7.97931 -34.5606 
645 645 5 -0.95 -1.69716 7.98948 -34.6871 
646 646 6 -0.95 -1.98003 -12.3512 -36.1802 
647 647 6 -0.95 -1.92129 -12.3585 -32.9263 
648 648 6 -0.95 -2.0636 -12.1726 -30.3326 
649 649 4 -1.05 -1.34908 10.3005 -35.9439 
650 650 4 -1.05 -1.45576 10.3189 -33.3862 
651 651 4 -1.05 -1.40019 10.187 -30.5056 
652 652 6 -0.95 -0.673341 12.4703 -37.3833 
653 653 6 -0.95 -0.5716 12.5382 -34.7048 
654 654 6 -0.95 -0.911042 12.3868 -31.9438 
655 655 4 -1.05 -0.738147 -10.3849 -37.5892 
656 656 4 -1.05 -0.859364 -10.3914 -34.5638 
657 657 4 -1.05 -0.739599 -10.2588 -31.6839 
658 658 5 -0.95 0.18643 -8.13984 -30.4304 
659 659 5 -0.95 0.0598779 8.05485 -30.5767 
660 660 4 -1.05 0.855026 10.2599 -37.5456 
661 661 4 -1.05 0.91882 10.2986 -34.6312 
662 662 4 -1.05 0.827164 10.3188 -31.7377 
663 663 6 -0.95 0.953731 -12.6516 -37.1661 
664 664 6 -0.95 0.350939 -12.7212 -34.6033 
665 665 6 -0.95 0.840991 -12.5164 -31.9947 
666 666 4 -1.05 1.55143 -10.3042 -36.01 
667 667 4 -1.05 1.58999 -10.5732 -33.4365 
668 668 4 -1.05 1.54654 -10.3142 -30.4892 
669 669 6 -0.95 1.81394 12.4327 -36.2786 
670 670 6 -0.95 1.75028 12.4082 -32.9856 
671 671 6 -0.95 2.15561 12.1617 -30.2855 
672 672 5 -0.95 1.44237 -8.15052 -34.4741 
673 673 5 -0.95 1.79809 7.92848 -34.6208 
674 674 4 -1.05 3.10929 9.8925 -35.8115 
675 675 4 -1.05 2.98415 9.87621 -33.2409 
676 676 4 -1.05 3.252 9.72532 -30.3397 
677 677 6 -0.95 3.65794 -11.8892 -36.1887 
678 678 6 -0.95 3.78183 -12.1747 -33.1638 
679 679 6 -0.95 3.30789 -12.2272 -30.5509 
680 680 5 -0.95 3.28494 -7.66507 -30.3335 
681 681 5 -0.95 3.64947 7.25276 -30.3977 