# This file is created by imo_withASE.py SR 01/04/2022 - and this is not a joke !
7448 atoms 
2128 bonds 
3724 angles 
7 atom types 
2 bond types 
2 angle types 
-108.0 108.0 xlo xhi 
-108.0 108.0 ylo yhi 
-4.225 4.225 zlo zhi 
0.0 0.0 0.0 xy xz yz 

 Masses 

1 26.9815385   #Al
2 1.008   #Hin
3 1.008   #Hout
4 15.999   #Obr
5 15.999   #Oin
6 15.999   #Oout
7 28.085   #Si
#8 15.999 #Ow
#9 1.008 #Hw

 Atoms  # full 

1 1 1 1.575 -12.7232 0.471853 -4.93983 
2 2 1 1.575 -12.6717 0.4663 0.782627 
3 3 1 1.575 -12.6205 -2.03415 -3.58268 
4 4 1 1.575 -12.5486 -2.08773 -0.711932 
5 5 1 1.575 -12.282 2.94996 -3.66717 
6 6 1 1.575 -12.3342 3.12414 -0.655359 
7 7 1 1.575 -11.831 -4.5588 -4.88759 
8 8 1 1.575 -11.7131 -4.57102 0.540804 
9 9 1 1.575 -10.8842 5.32817 -4.79119 
10 10 1 1.575 -11.0811 5.50984 0.645888 
11 11 1 1.575 -10.0735 -6.74052 -3.43793 
12 12 1 1.575 -10.3523 -6.80943 -0.481192 
13 13 1 1.575 -8.89865 6.89651 -3.34075 
14 14 1 1.575 -8.95895 7.2233 -0.578641 
15 15 1 1.575 -8.17762 -8.26543 -4.85869 
16 16 1 1.575 -8.14727 -8.16048 0.796565 
17 17 1 1.575 -6.93355 8.21725 -4.85478 
18 18 1 1.575 -6.89414 8.27977 0.766659 
19 19 1 1.575 -5.92768 -9.38095 -3.47149 
20 20 1 1.575 -5.90407 -9.3701 -0.679771 
21 21 1 1.575 -4.83455 9.38105 -3.38058 
22 22 1 1.575 -4.74529 9.41633 -0.528045 
23 23 1 1.575 -3.50099 -10.2535 -4.81733 
24 24 1 1.575 -3.54945 -10.1459 0.728064 
25 25 1 1.575 -2.61389 10.6361 -4.84226 
26 26 1 1.575 -2.62938 10.6376 0.798246 
27 27 1 1.575 -0.965817 -10.3827 -3.44778 
28 28 1 1.575 -0.850727 -10.2084 -0.629281 
29 29 1 1.575 -0.246113 11.6147 -3.53735 
30 30 1 1.575 -0.181797 11.552 -0.598101 
31 31 1 1.575 1.4638 -10.0102 -4.84153 
32 32 1 1.575 1.59043 -9.9832 0.71837 
33 33 1 1.575 2.40146 11.8522 -4.80119 
34 34 1 1.575 2.33795 11.6922 0.868999 
35 35 1 1.575 3.84727 -9.08082 -3.60749 
36 36 1 1.575 3.67974 -8.83266 -0.740122 
37 37 1 1.575 4.76952 10.9724 -3.4723 
38 38 1 1.575 4.74716 10.9049 -0.566871 
39 39 1 1.575 5.99761 -7.64189 -4.9645 
40 40 1 1.575 6.22184 -7.89535 0.52558 
41 41 1 1.575 6.9397 9.93126 -4.75225 
42 42 1 1.575 7.09727 9.6116 0.830689 
43 43 1 1.575 8.05062 -6.1881 -3.64116 
44 44 1 1.575 8.14316 -6.06194 -0.72256 
45 45 1 1.575 9.07554 8.34517 -3.40119 
46 46 1 1.575 9.19001 8.22771 -0.530467 
47 47 1 1.575 9.56587 -3.9673 -4.73782 
48 48 1 1.575 9.42945 -3.79567 0.789276 
49 49 1 1.575 10.5573 6.12804 -4.73996 
50 50 1 1.575 10.5144 5.98593 0.916483 
51 51 1 1.575 10.5357 -1.62215 -3.45602 
52 52 1 1.575 10.2637 -1.38489 -0.538121 
53 53 1 1.575 11.1583 3.60947 -3.44589 
54 54 1 1.575 11.0662 3.66708 -0.530277 
55 55 1 1.575 10.9027 1.05629 -4.70762 
56 56 1 1.575 10.7916 0.950088 0.799233 
57 57 2 0.425 -9.10624 1.50697 -2.01217 
58 58 2 0.425 -9.04129 -0.464783 2.45075 
59 59 2 0.425 -8.6622 2.41203 1.16985 
60 60 2 0.425 -8.96448 -1.89651 -2.29527 
61 61 2 0.425 -7.45907 3.69388 -1.64133 
62 62 2 0.425 -8.55237 -3.36926 2.74769 
63 63 2 0.425 -6.13905 4.6298 2.13385 
64 64 2 0.425 -7.42363 -4.58755 -2.39493 
65 65 2 0.425 -4.35905 5.42349 -2.25648 
66 66 2 0.425 -5.49836 -5.69471 1.7598 
67 67 2 0.425 -2.49494 6.44367 2.86095 
68 68 2 0.425 -3.00301 -6.63198 -3.03859 
69 69 2 0.425 -0.1458 7.96409 -1.74566 
70 70 2 0.425 -1.9118 -6.64233 1.64836 
71 71 2 0.425 1.645 8.09885 2.35366 
72 72 2 0.425 -0.490817 -6.59051 -2.16375 
73 73 2 0.425 2.4749 7.69699 -2.13276 
74 74 2 0.425 1.3396 -6.01931 2.49376 
75 75 2 0.425 4.13173 7.2171 1.9443 
76 76 2 0.425 3.43254 -5.02704 -1.29483 
77 77 2 0.425 5.89112 6.22019 -2.21867 
78 78 2 0.425 4.51482 -4.38484 2.53506 
79 79 2 0.425 7.10123 4.8287 2.4039 
80 80 2 0.425 5.82807 -3.24059 -1.9285 
81 81 2 0.425 7.4621 3.73716 -1.8596 
82 82 2 0.425 6.50365 -1.56474 2.3464 
83 83 2 0.425 7.43054 2.31754 2.53612 
84 84 2 0.425 6.99928 0.890503 -1.6762 
85 85 3 0.425 -14.8407 -0.732919 -3.89938 
86 86 3 0.425 -14.5969 2.01073 -0.153657 
87 87 3 0.425 -13.5267 -3.15903 1.51239 
88 88 3 0.425 -13.4196 5.39356 -3.88186 
89 89 3 0.425 -13.0615 -6.66903 -4.05048 
90 90 3 0.425 -11.267 8.08376 0.180625 
91 91 3 0.425 -10.6549 -9.05939 0.385205 
92 92 3 0.425 -9.10156 9.41663 -3.92574 
93 93 3 0.425 -8.24568 -10.6722 -3.81173 
94 94 3 0.425 -6.71374 10.7661 0.324324 
95 95 3 0.425 -5.43289 -11.941 0.36784 
96 96 3 0.425 -4.36258 12.1369 -3.88542 
97 97 3 0.425 -2.91675 -11.4391 -2.54771 
98 98 3 0.425 -2.0661 13.3188 0.282229 
99 99 3 0.425 0.464104 -12.1905 0.237926 
100 100 3 0.425 1.55741 13.2901 -2.74888 
101 101 3 0.425 3.28345 -11.6167 -4.03694 
102 102 3 0.425 4.24659 13.301 0.429351 
103 103 3 0.425 5.77825 -10.3671 0.240956 
104 104 3 0.425 7.08393 11.5009 -2.60995 
105 105 3 0.425 7.31035 -8.17566 -2.68096 
106 106 3 0.425 9.54533 10.5704 0.415015 
107 107 3 0.425 10.2839 -6.57513 0.140179 
108 108 3 0.425 11.6248 7.24449 -2.6186 
109 109 3 0.425 11.1087 -3.98924 -2.51241 
110 110 3 0.425 12.4473 4.34094 1.44573 
111 111 3 0.425 12.5158 -0.808008 0.585433 
112 112 3 0.425 12.9262 2.12993 -4.45904 
113 113 3 0.425 -14.0609 -1.14981 2.29655 
114 114 3 0.425 -14.2835 2.1679 -1.97448 
115 115 3 0.425 -13.7434 -3.95255 -2.24665 
116 116 3 0.425 -13.126 5.07985 2.14113 
117 117 3 0.425 -12.5969 -6.54803 2.05545 
118 118 3 0.425 -11.0082 6.79625 -2.0075 
119 119 3 0.425 -10.1302 -8.85818 -1.99947 
120 120 3 0.425 -9.06333 8.52444 2.3061 
121 121 3 0.425 -7.8664 -10.3052 2.04405 
122 122 3 0.425 -6.44621 10.8534 -1.92131 
123 123 3 0.425 -6.20301 -11.5478 -1.98119 
124 124 3 0.425 -4.70629 10.8753 2.41956 
125 125 3 0.425 -2.0765 -11.8265 2.14658 
126 126 3 0.425 -2.21327 12.2447 -2.14504 
127 127 3 0.425 0.995046 -11.1336 -2.06685 
128 128 3 0.425 0.762855 12.9763 2.1266 
129 129 3 0.425 2.11866 -12.0517 2.30082 
130 130 3 0.425 3.70373 12.8639 -2.0522 
131 131 3 0.425 4.58695 -10.9029 -2.09667 
132 132 3 0.425 6.35315 11.8054 1.99131 
133 133 3 0.425 7.90548 -8.91613 2.15193 
134 134 3 0.425 8.86465 10.4398 -1.93951 
135 135 3 0.425 10.2763 -5.91286 -2.23973 
136 136 3 0.425 12.4215 7.03294 2.4084 
137 137 3 0.425 11.1096 -4.9143 2.08372 
138 138 3 0.425 12.9559 3.50304 -1.83595 
139 139 3 0.425 12.0507 -0.186975 -1.95548 
140 140 3 0.425 12.7097 0.551551 2.272 
141 141 3 0.425 -14.7188 -1.09164 0.143666 
142 142 3 0.425 -14.6713 2.19898 -4.14785 
143 143 3 0.425 -14.4318 -3.62159 -4.57962 
144 144 3 0.425 -12.522 5.46091 -1.49327 
145 145 3 0.425 -12.4896 -6.04028 -1.47813 
146 146 3 0.425 -10.6942 7.65967 -5.40911 
147 147 3 0.425 -10.5238 -8.14073 -5.63663 
148 148 3 0.425 -7.95951 9.26829 -1.34792 
149 149 3 0.425 -8.34106 -9.43921 -1.43958 
150 150 3 0.425 -6.86984 10.4269 -3.96069 
151 151 3 0.425 -5.77746 -10.8514 -5.69524 
152 152 3 0.425 -4.41955 12.0093 -0.0554603 
153 153 3 0.425 -2.39555 -12.2884 -0.304923 
154 154 3 0.425 -2.14753 13.006 -4.3963 
155 155 3 0.425 0.384217 -12.2375 -4.49506 
156 156 3 0.425 1.15963 13.6792 0.0388223 
157 157 3 0.425 3.41837 -11.4234 -0.463158 
158 158 3 0.425 4.40421 12.8861 -5.57279 
159 159 3 0.425 4.83173 -9.84151 -5.66188 
160 160 3 0.425 6.98564 12.1256 -0.240484 
161 161 3 0.425 8.45452 -8.7979 -0.34841 
162 162 3 0.425 9.38025 9.80969 -5.49629 
163 163 3 0.425 9.47387 -6.3382 -5.83899 
164 164 3 0.425 11.6068 8.13286 0.0388501 
165 165 3 0.425 11.8867 -3.30092 -0.00569708 
166 166 3 0.425 13.108 5.1497 -4.29648 
167 167 3 0.425 11.8211 -1.1761 -5.70977 
168 168 3 0.425 13.061 1.92845 0.116463 
169 169 4 -1.05 -11.7457 1.04681 -3.41197 
170 170 4 -1.05 -11.8408 1.11113 -0.801688 
171 171 4 -1.05 -11.6845 1.2409 2.15259 
172 172 4 -1.05 -11.6605 -1.10467 -5.02166 
173 173 4 -1.05 -11.5983 -1.05649 -2.08325 
174 174 4 -1.05 -11.7637 -1.2092 0.918877 
175 175 4 -1.05 -11.1347 3.4105 -5.04221 
176 176 4 -1.05 -10.9797 3.38114 -2.14425 
177 177 4 -1.05 -11.2524 3.33046 0.847273 
178 178 4 -1.05 -11.2269 -3.47124 -3.4507 
179 179 4 -1.05 -11.1455 -3.46457 -0.908996 
180 180 4 -1.05 -11.0825 -3.27034 2.19594 
181 181 4 -1.05 -9.48195 5.19434 -3.27089 
182 182 4 -1.05 -9.8403 5.1275 -0.746905 
183 183 4 -1.05 -9.60722 5.33543 2.06321 
184 184 4 -1.05 -10.1414 -5.54764 -5.002 
185 185 4 -1.05 -9.96875 -5.28382 -2.25459 
186 186 4 -1.05 -9.96777 -5.3227 0.764009 
187 187 4 -1.05 -7.82373 6.53613 -5.01419 
188 188 4 -1.05 -7.65006 6.67792 -1.97755 
189 189 4 -1.05 -7.85589 6.63634 0.8894 
190 190 4 -1.05 -8.24146 -7.01144 -3.41975 
191 191 4 -1.05 -8.38652 -7.07522 -0.835444 
192 192 4 -1.05 -8.4452 -6.90026 2.1626 
193 193 4 -1.05 -5.77306 7.67644 -3.32031 
194 194 4 -1.05 -5.61466 7.70025 -0.636252 
195 195 4 -1.05 -5.69378 7.8594 2.25467 
196 196 4 -1.05 -6.25068 -8.21816 -5.04631 
197 197 4 -1.05 -6.30129 -7.94263 -2.0857 
198 198 4 -1.05 -6.30573 -8.16854 0.902959 
199 199 4 -1.05 -3.68681 8.90723 -4.92311 
200 200 4 -1.05 -3.5018 9.08627 -2.00095 
201 201 4 -1.05 -3.60888 8.92916 0.919606 
202 202 4 -1.05 -3.93079 -9.069 -3.3681 
203 203 4 -1.05 -4.00657 -8.96021 -0.774015 
204 204 4 -1.05 -4.20786 -8.94813 2.16323 
205 205 4 -1.05 -1.60081 10.0592 -3.28626 
206 206 4 -1.05 -1.50189 10.1434 -0.718508 
207 207 4 -1.05 -1.37213 9.98554 2.19401 
208 208 4 -1.05 -1.80523 -9.29785 -5.04354 
209 209 4 -1.05 -1.74498 -9.37782 -2.02602 
210 210 4 -1.05 -1.67077 -9.37108 0.811143 
211 211 4 -1.05 0.65288 10.7383 -4.9622 
212 212 4 -1.05 0.761782 10.9033 -2.12522 
213 213 4 -1.05 0.694261 10.6602 0.8846 
214 214 4 -1.05 0.510359 -9.10441 -3.45586 
215 215 4 -1.05 0.631471 -9.01303 -0.906363 
216 216 4 -1.05 0.506135 -9.08437 2.09163 
217 217 4 -1.05 2.89669 10.6341 -3.35934 
218 218 4 -1.05 2.88484 10.5768 -0.755714 
219 219 4 -1.05 3.01043 10.5326 2.28382 
220 220 4 -1.05 2.76275 -8.53931 -5.04899 
221 221 4 -1.05 2.65839 -8.31066 -2.27098 
222 222 4 -1.05 2.7956 -8.38834 0.832531 
223 223 4 -1.05 5.07434 9.77164 -4.89989 
224 224 4 -1.05 5.09625 9.6846 -2.12592 
225 225 4 -1.05 5.07109 9.70373 0.934441 
226 226 4 -1.05 4.90764 -7.25968 -3.41854 
227 227 4 -1.05 4.8956 -7.42506 -0.877896 
228 228 4 -1.05 4.66708 -7.45939 2.15222 
229 229 4 -1.05 7.08965 8.66586 -3.33513 
230 230 4 -1.05 7.08765 8.57838 -0.733862 
231 231 4 -1.05 7.08464 8.39913 2.27983 
232 232 4 -1.05 6.76291 -5.94415 -5.09005 
233 233 4 -1.05 6.7103 -6.00165 -2.09039 
234 234 4 -1.05 6.66294 -5.95956 0.701816 
235 235 4 -1.05 8.96618 7.01857 -4.89499 
236 236 4 -1.05 8.82551 7.02176 -2.00588 
237 237 4 -1.05 8.88949 7.08063 1.00223 
238 238 4 -1.05 8.34034 -4.10124 -3.36123 
239 239 4 -1.05 8.37872 -4.21563 -0.759954 
240 240 4 -1.05 7.98243 -4.12862 2.13611 
241 241 4 -1.05 9.87514 5.01619 -3.2247 
242 242 4 -1.05 9.77872 5.02873 -0.645716 
243 243 4 -1.05 9.84961 4.84247 2.25412 
244 244 4 -1.05 9.36423 -2.02812 -4.82668 
245 245 4 -1.05 9.16405 -2.09889 -2.00112 
246 246 4 -1.05 9.05858 -1.944 1.02798 
247 247 4 -1.05 10.1163 2.75699 -4.86531 
248 248 4 -1.05 10.0748 2.62591 -1.91328 
249 249 4 -1.05 9.86087 2.55489 0.997008 
250 250 4 -1.05 9.92959 0.525585 -3.21902 
251 251 4 -1.05 9.65989 0.383289 -0.683632 
252 252 4 -1.05 9.62559 0.118135 2.43701 
253 253 5 -0.95 -9.57162 0.592688 -1.98502 
254 254 5 -0.95 -9.42624 -1.34599 2.15062 
255 255 5 -0.95 -9.28883 2.21532 1.9538 
256 256 5 -0.95 -8.94867 -2.88906 -2.27533 
257 257 5 -0.95 -8.41155 3.29757 -1.81969 
258 258 5 -0.95 -8.20345 -4.30862 2.50317 
259 259 5 -0.95 -7.16374 4.47881 2.11086 
260 260 5 -0.95 -6.85586 -5.39358 -2.10493 
261 261 5 -0.95 -5.36075 5.47848 -1.94955 
262 262 5 -0.95 -4.90352 -6.44398 2.15476 
263 263 5 -0.95 -3.39322 6.64083 2.39306 
264 264 5 -0.95 -2.84175 -7.08975 -2.1502 
265 265 5 -0.95 -1.19102 7.89913 -1.77855 
266 266 5 -0.95 -1.06111 -7.14086 2.01306 
267 267 5 -0.95 0.634223 8.3956 2.23828 
268 268 5 -0.95 0.536478 -6.81928 -2.28425 
269 269 5 -0.95 1.80525 8.50829 -2.07227 
270 270 5 -0.95 2.37781 -6.1536 2.44751 
271 271 5 -0.95 3.59433 8.04318 2.22856 
272 272 5 -0.95 4.34605 -5.11688 -1.7398 
273 273 5 -0.95 5.46207 7.12053 -2.09826 
274 274 5 -0.95 5.45169 -4.10448 2.13745 
275 275 5 -0.95 6.9495 5.88054 2.31005 
276 276 5 -0.95 6.65544 -2.60769 -1.89976 
277 277 5 -0.95 7.58046 4.74931 -1.99076 
278 278 5 -0.95 7.25019 -0.931983 2.58927 
279 279 5 -0.95 7.82384 3.22053 2.43329 
280 280 5 -0.95 7.73716 1.52321 -2.01265 
281 281 6 -0.95 -13.8553 -0.473057 -3.64142 
282 282 6 -0.95 -13.8046 2.23233 0.455646 
283 283 6 -0.95 -13.2879 -3.45949 0.542203 
284 284 6 -0.95 -12.4885 5.09787 -3.5549 
285 285 6 -0.95 -12.411 -6.04263 -3.57361 
286 286 6 -0.95 -10.5929 7.3782 0.634818 
287 287 6 -0.95 -10.3248 -8.16567 0.721468 
288 288 6 -0.95 -8.4364 8.74479 -3.56764 
289 289 6 -0.95 -7.87935 -9.67338 -3.62914 
290 290 6 -0.95 -6.08986 10.0166 0.655211 
291 291 6 -0.95 -5.31439 -10.9245 0.711998 
292 292 6 -0.95 -3.84889 11.317 -3.48705 
293 293 6 -0.95 -2.62017 -11.4506 -3.54252 
294 294 6 -0.95 -1.49666 12.4997 0.593366 
295 295 6 -0.95 0.233599 -11.2572 0.521107 
296 296 6 -0.95 1.21231 12.9571 -3.68038 
297 297 6 -0.95 2.76216 -10.7722 -3.71525 
298 298 6 -0.95 4.20549 12.3547 0.854292 
299 299 6 -0.95 5.25829 -9.60271 0.67645 
300 300 6 -0.95 6.61727 11.4383 -3.57171 
301 301 6 -0.95 7.59458 -8.05955 -3.66176 
302 302 6 -0.95 9.05935 9.71783 0.666562 
303 303 6 -0.95 9.542 -6.12083 0.640585 
304 304 6 -0.95 11.1411 7.47369 -3.51824 
305 305 6 -0.95 11.0644 -3.5036 -3.43637 
306 306 6 -0.95 11.9757 4.77173 0.651496 
307 307 6 -0.95 11.5292 -0.857448 0.771327 
308 308 6 -0.95 12.2367 1.92504 -3.68894 
309 309 6 -0.95 -13.8772 -0.131461 2.21888 
310 310 6 -0.95 -13.6527 3.00171 -2.10344 
311 311 6 -0.95 -13.5624 -2.94103 -2.1756 
312 312 6 -0.95 -12.3059 5.64132 2.12492 
313 313 6 -0.95 -12.511 -5.52524 2.1113 
314 314 6 -0.95 -10.2633 7.51129 -2.02439 
315 315 6 -0.95 -10.646 -7.9467 -1.99877 
316 316 6 -0.95 -8.17412 8.97784 2.26896 
317 317 6 -0.95 -8.38644 -9.42397 2.12061 
318 318 6 -0.95 -5.97012 9.91545 -1.91357 
319 319 6 -0.95 -5.73681 -10.6187 -2.02925 
320 320 6 -0.95 -3.75844 11.1826 2.23797 
321 321 6 -0.95 -3.03297 -11.4103 2.15698 
322 322 6 -0.95 -1.25284 12.608 -2.17489 
323 323 6 -0.95 0.0506976 -11.4113 -2.13815 
324 324 6 -0.95 1.7838 12.8975 2.10831 
325 325 6 -0.95 2.30152 -11.0386 2.2152 
326 326 6 -0.95 4.54528 12.2998 -1.98325 
327 327 6 -0.95 4.78691 -9.86023 -2.12428 
328 328 6 -0.95 7.09321 11.1175 2.13931 
329 329 6 -0.95 7.28519 -8.11783 2.04941 
330 330 6 -0.95 9.5206 9.62243 -1.90923 
331 331 6 -0.95 9.45361 -6.47723 -2.1275 
332 332 6 -0.95 11.431 6.92783 2.29902 
333 333 6 -0.95 10.6458 -3.98208 2.10236 
334 334 6 -0.95 12.1195 4.12924 -1.96798 
335 335 6 -0.95 11.6123 -1.08129 -1.97008 
336 336 6 -0.95 11.98 1.3272 2.25729 
337 337 6 -0.95 -13.8772 -0.752119 -0.37801 
338 338 6 -0.95 -13.789 2.29265 -4.70047 
339 339 6 -0.95 -13.5175 -3.25844 -4.8872 
340 340 6 -0.95 -12.5274 5.05566 -0.553199 
341 341 6 -0.95 -12.1385 -6.09084 -0.539357 
342 342 6 -0.95 -10.6408 7.11928 -4.58187 
343 343 6 -0.95 -10.2143 -8.28418 -4.63129 
344 344 6 -0.95 -8.35677 8.93695 -0.423089 
345 345 6 -0.95 -7.86566 -9.65645 -0.574457 
346 346 6 -0.95 -6.22509 9.95427 -4.57254 
347 347 6 -0.95 -5.34464 -10.799 -4.71759 
348 348 6 -0.95 -3.91961 11.2619 -0.453636 
349 349 6 -0.95 -2.63293 -11.3257 -0.589047 
350 350 6 -0.95 -1.54959 12.3306 -4.81071 
351 351 6 -0.95 0.0417555 -11.3627 -4.86776 
352 352 6 -0.95 1.35164 12.8477 -0.467609 
353 353 6 -0.95 2.75452 -10.6661 -0.68987 
354 354 6 -0.95 4.06653 12.7187 -4.59757 
355 355 6 -0.95 5.25255 -9.56098 -4.80153 
356 356 6 -0.95 6.67694 11.1978 -0.595362 
357 357 6 -0.95 7.64923 -8.18938 -0.668112 
358 358 6 -0.95 8.88929 9.89772 -4.56874 
359 359 6 -0.95 9.5717 -6.01164 -4.87652 
360 360 6 -0.95 11.0583 7.41179 -0.423295 
361 361 6 -0.95 11.058 -3.46847 -0.519575 
362 362 6 -0.95 12.2184 4.76608 -4.56133 
363 363 6 -0.95 11.7349 -0.860289 -4.7157 
364 364 6 -0.95 12.1234 1.85135 -0.3081 
365 365 7 2.1 -11.1591 0.462737 -2.0663 
366 366 7 2.1 -10.8909 -1.76341 2.15251 
367 367 7 2.1 -10.7677 2.58122 2.09732 
368 368 7 2.1 -10.2764 -3.78648 -2.19705 
369 369 7 2.1 -9.68232 4.25537 -2.01602 
370 370 7 2.1 -9.19385 -5.46107 2.23242 
371 371 7 2.1 -8.11872 5.71415 2.13109 
372 372 7 2.1 -7.39706 -6.82702 -2.13797 
373 373 7 2.1 -6.08292 6.8939 -1.9871 
374 374 7 2.1 -5.41327 -7.9034 2.13197 
375 375 7 2.1 -4.04706 8.01001 2.25724 
376 376 7 2.1 -3.16442 -8.69444 -2.00762 
377 377 7 2.1 -1.89608 9.23492 -1.91558 
378 378 7 2.1 -1.02993 -8.77063 2.17807 
379 379 7 2.1 0.166941 9.87396 2.2803 
380 380 7 2.1 1.11586 -8.27316 -2.22889 
381 381 7 2.1 2.095 10.0899 -2.06549 
382 382 7 2.1 3.10846 -7.61545 2.1339 
383 383 7 2.1 4.13726 9.43675 2.3265 
384 384 7 2.1 5.12285 -6.40841 -2.05927 
385 385 7 2.1 6.21032 8.53269 -2.05653 
386 386 7 2.1 6.70542 -5.08381 2.01793 
387 387 7 2.1 7.93774 7.06497 2.31321 
388 388 7 2.1 8.08876 -3.23917 -1.94925 
389 389 7 2.1 9.01348 5.39799 -1.96119 
390 390 7 2.1 8.74403 -1.19613 2.43012 
391 391 7 2.1 9.4178 3.33762 2.29599 
392 392 7 2.1 9.28504 1.23245 -1.97542 
393 393 1 1.575 -38.5808 -48.9357 -4.94611 
394 394 1 1.575 -38.4116 -48.8333 0.535459 
395 395 1 1.575 -38.0558 -51.3317 -3.7024 
396 396 1 1.575 -37.9346 -51.1633 -0.783615 
397 397 1 1.575 -38.6166 -46.2002 -3.60831 
398 398 1 1.575 -38.7147 -46.1722 -0.722346 
399 399 1 1.575 -36.7394 -53.6782 -5.04914 
400 400 1 1.575 -36.8018 -53.6542 0.547684 
401 401 1 1.575 -37.9891 -43.7079 -4.85021 
402 402 1 1.575 -38.0518 -43.7551 0.658752 
403 403 1 1.575 -34.8461 -55.4315 -3.64988 
404 404 1 1.575 -35.0481 -55.5562 -0.743161 
405 405 1 1.575 -36.6502 -41.5216 -3.68874 
406 406 1 1.575 -36.7146 -41.628 -0.832154 
407 407 1 1.575 -32.7767 -56.9017 -5.105 
408 408 1 1.575 -32.7305 -56.8702 0.547575 
409 409 1 1.575 -35.211 -39.5422 -5.17434 
410 410 1 1.575 -34.979 -39.5611 0.411593 
411 411 1 1.575 -30.4487 -57.7984 -3.74847 
412 412 1 1.575 -30.3341 -57.693 -0.87186 
413 413 1 1.575 -33.1602 -38.0129 -3.77168 
414 414 1 1.575 -32.9844 -38.0743 -0.916046 
415 415 1 1.575 -27.8683 -58.3428 -5.146 
416 416 1 1.575 -27.9294 -58.3651 0.475744 
417 417 1 1.575 -31.028 -36.6919 -5.09706 
418 418 1 1.575 -30.8735 -36.5319 0.48214 
419 419 1 1.575 -25.4689 -58.5683 -3.64603 
420 420 1 1.575 -25.4897 -58.6217 -0.823921 
421 421 1 1.575 -28.4877 -36.0073 -3.81233 
422 422 1 1.575 -28.4984 -36.0009 -0.803044 
423 423 1 1.575 -22.9055 -58.2373 -5.06221 
424 424 1 1.575 -22.884 -58.113 0.522092 
425 425 1 1.575 -25.8604 -35.9528 -5.16852 
426 426 1 1.575 -25.8603 -35.9641 0.363408 
427 427 1 1.575 -20.5341 -57.3553 -3.68575 
428 428 1 1.575 -20.3498 -57.3629 -0.793209 
429 429 1 1.575 -23.399 -36.4708 -3.761 
430 430 1 1.575 -23.3263 -36.4943 -0.892416 
431 431 1 1.575 -18.4865 -55.5156 -5.12651 
432 432 1 1.575 -17.992 -55.6249 0.285941 
433 433 1 1.575 -21.0546 -37.6715 -5.10955 
434 434 1 1.575 -21.0286 -37.7236 0.519881 
435 435 1 1.575 -17.0236 -53.4667 -3.79346 
436 436 1 1.575 -16.6704 -53.417 -0.985901 
437 437 1 1.575 -18.9136 -39.0929 -3.78778 
438 438 1 1.575 -18.9058 -39.0488 -0.863612 
439 439 1 1.575 -16.1784 -51.0407 -5.31934 
440 440 1 1.575 -16.0485 -51.0437 0.33367 
441 441 1 1.575 -17.232 -41.0668 -4.98717 
442 442 1 1.575 -17.512 -41.2248 0.555486 
443 443 1 1.575 -16.0618 -48.5864 -3.78634 
444 444 1 1.575 -16.2639 -48.5589 -1.03429 
445 445 1 1.575 -16.3219 -43.5301 -3.90637 
446 446 1 1.575 -16.3954 -43.5606 -0.955313 
447 447 1 1.575 -16.1766 -46.1045 -5.16117 
448 448 1 1.575 -16.3018 -46.0027 0.47738 
449 449 2 0.425 -35.0557 -47.1508 -2.12274 
450 450 2 0.425 -34.1321 -50.7084 1.79004 
451 451 2 0.425 -34.8584 -47.1564 2.07731 
452 452 2 0.425 -34.2446 -50.7561 -2.80263 
453 453 2 0.425 -34.1242 -44.2326 -1.7319 
454 454 2 0.425 -32.1899 -52.6586 2.23223 
455 455 2 0.425 -34.2892 -44.4779 2.20948 
456 456 2 0.425 -32.1432 -53.2462 -2.00654 
457 457 2 0.425 -31.76 -41.4714 -2.30174 
458 458 2 0.425 -28.6653 -54.5007 2.58401 
459 459 2 0.425 -31.5424 -41.4893 2.1026 
460 460 2 0.425 -26.5805 -54.723 -2.70426 
461 461 2 0.425 -28.5434 -39.7919 -2.79608 
462 462 2 0.425 -26.3423 -54.8609 1.47551 
463 463 2 0.425 -28.4609 -39.9185 1.26342 
464 464 2 0.425 -22.6531 -54.4262 -2.28721 
465 465 2 0.425 -25.1225 -39.5946 -2.62734 
466 466 2 0.425 -23.2074 -54.6323 2.00842 
467 467 2 0.425 -25.3064 -39.758 1.46817 
468 468 2 0.425 -20.8939 -52.9561 -2.25166 
469 469 2 0.425 -21.9992 -41.2884 -2.5393 
470 470 2 0.425 -20.6315 -52.6025 1.76006 
471 471 2 0.425 -21.9493 -41.6034 2.26935 
472 472 2 0.425 -19.9094 -49.8058 -2.333 
473 473 2 0.425 -20.0007 -43.8715 -2.20012 
474 474 2 0.425 -19.6767 -49.5336 2.34949 
475 475 2 0.425 -20.3093 -43.6356 2.06216 
476 476 2 0.425 -19.7496 -46.3268 -3.50485 
477 477 3 0.425 -39.7646 -49.77 -2.8797 
478 478 3 0.425 -40.5816 -47.569 -0.24101 
479 479 3 0.425 -39.2635 -53.3677 0.331188 
480 480 3 0.425 -39.4461 -43.8945 -2.81104 
481 481 3 0.425 -37.4329 -56.0377 -3.99304 
482 482 3 0.425 -39.1997 -41.3943 -0.0810469 
483 483 3 0.425 -35.1187 -57.9976 -0.0955204 
484 484 3 0.425 -36.2135 -39.0818 -2.8837 
485 485 3 0.425 -32.4935 -59.2676 -4.22343 
486 486 3 0.425 -35.4211 -37.1253 -0.0578396 
487 487 3 0.425 -29.865 -59.999 -0.00360195 
488 488 3 0.425 -33.0128 -35.4735 -4.17974 
489 489 3 0.425 -26.8717 -60.5583 -4.23864 
490 490 3 0.425 -29.0859 -35.1048 1.33431 
491 491 3 0.425 -23.9242 -60.4691 0.0248959 
492 492 3 0.425 -27.3728 -33.9022 -4.60388 
493 493 3 0.425 -21.1125 -59.7729 -4.42828 
494 494 3 0.425 -23.5069 -35.018 1.17683 
495 495 3 0.425 -19.4738 -57.9851 1.48606 
496 496 3 0.425 -21.018 -36.2749 -3.00992 
497 497 3 0.425 -15.9053 -55.8605 -4.40978 
498 498 3 0.425 -18.8186 -36.6327 0.0308508 
499 499 3 0.425 -14.9606 -53.161 1.13414 
500 500 3 0.425 -16.6609 -39.7478 -3.05968 
501 501 3 0.425 -13.9679 -49.9955 -4.02492 
502 502 3 0.425 -14.8098 -41.9254 -0.186943 
503 503 3 0.425 -14.1229 -47.515 -0.320387 
504 504 3 0.425 -14.1029 -44.9157 -4.06816 
505 505 3 0.425 -40.4769 -48.8233 1.94307 
506 506 3 0.425 -40.7594 -46.5356 -2.33964 
507 507 3 0.425 -38.9433 -53.1601 -2.22403 
508 508 3 0.425 -39.5873 -42.5193 1.99471 
509 509 3 0.425 -36.5489 -55.6825 1.9548 
510 510 3 0.425 -38.5101 -40.2755 -1.9824 
511 511 3 0.425 -34.3545 -57.4456 -2.08854 
512 512 3 0.425 -37.135 -40.1196 1.83726 
513 513 3 0.425 -31.5594 -58.4548 1.95816 
514 514 3 0.425 -34.2725 -36.3353 -2.38573 
515 515 3 0.425 -28.7776 -59.2425 -2.24885 
516 516 3 0.425 -31.6838 -34.6155 1.9594 
517 517 3 0.425 -26.2974 -59.569 1.81114 
518 518 3 0.425 -28.805 -33.9352 -2.23421 
519 519 3 0.425 -23.6338 -59.7919 -2.13621 
520 520 3 0.425 -25.8499 -33.7905 1.8841 
521 521 3 0.425 -20.9338 -59.1768 2.04763 
522 522 3 0.425 -22.8176 -34.4344 -2.44353 
523 523 3 0.425 -19.1536 -58.9743 -2.28828 
524 524 3 0.425 -21.4701 -35.6381 1.92782 
525 525 3 0.425 -17.2764 -57.2162 1.90773 
526 526 3 0.425 -19.0995 -36.9606 -2.42341 
527 527 3 0.425 -15.0492 -52.4352 -2.64014 
528 528 3 0.425 -15.5497 -40.1658 1.77849 
529 529 3 0.425 -14.8597 -49.4025 1.74849 
530 530 3 0.425 -14.3631 -43.1257 -2.30213 
531 531 3 0.425 -14.1145 -48.397 -2.17734 
532 532 3 0.425 -14.1768 -46.064 1.57382 
533 533 3 0.425 -40.1112 -50.4007 0.11482 
534 534 3 0.425 -39.8775 -46.7592 -5.66097 
535 535 3 0.425 -39.1213 -52.4712 -5.53545 
536 536 3 0.425 -40.4456 -44.5093 0.0522712 
537 537 3 0.425 -37.3895 -55.1272 -1.56938 
538 538 3 0.425 -39.08 -41.4118 -4.20164 
539 539 3 0.425 -34.8943 -57.9713 -4.5426 
540 540 3 0.425 -37.3789 -39.04 -0.391821 
541 541 3 0.425 -32.627 -59.1951 -0.431874 
542 542 3 0.425 -35.3608 -37.1987 -4.36525 
543 543 3 0.425 -29.4022 -59.7664 -4.00969 
544 544 3 0.425 -32.0795 -36.0654 -1.85797 
545 545 3 0.425 -27.0222 -60.6076 -0.420386 
546 546 3 0.425 -30.2117 -34.4894 -4.11969 
547 547 3 0.425 -24.0256 -60.4012 -4.56108 
548 548 3 0.425 -26.4222 -34.6284 -1.6594 
549 549 3 0.425 -21.1977 -59.8992 -0.299994 
550 550 3 0.425 -23.8978 -34.2306 -4.6156 
551 551 3 0.425 -18.2347 -58.257 -4.52565 
552 552 3 0.425 -20.9666 -35.4625 -0.554349 
553 553 3 0.425 -16.792 -55.8473 -1.9447 
554 554 3 0.425 -18.6534 -37.7132 -5.83647 
555 555 3 0.425 -14.5437 -52.7152 -4.47206 
556 556 3 0.425 -16.4277 -38.9513 -0.197618 
557 557 3 0.425 -14.0067 -49.8701 -0.39393 
558 558 3 0.425 -15.3611 -42.3624 -6.01052 
559 559 3 0.425 -14.0432 -47.3373 -4.4381 
560 560 3 0.425 -15.2905 -45.4689 -1.77826 
561 561 4 -1.05 -37.6238 -48.1482 -3.56692 
562 562 4 -1.05 -37.5923 -47.9064 -0.986404 
563 563 4 -1.05 -37.5983 -47.8188 1.94354 
564 564 4 -1.05 -37.2891 -50.3436 -5.18406 
565 565 4 -1.05 -37.1235 -50.0963 -2.114 
566 566 4 -1.05 -37.1688 -50.2571 0.742227 
567 567 4 -1.05 -37.5518 -45.7061 -5.06429 
568 568 4 -1.05 -37.417 -45.4949 -2.13267 
569 569 4 -1.05 -37.6792 -45.6149 0.809002 
570 570 4 -1.05 -36.3363 -52.4214 -3.42891 
571 571 4 -1.05 -36.2705 -52.4864 -0.883046 
572 572 4 -1.05 -36.2553 -52.347 1.98191 
573 573 4 -1.05 -36.6863 -43.3512 -3.40636 
574 574 4 -1.05 -36.8717 -43.4758 -0.86513 
575 575 4 -1.05 -36.7533 -43.4596 1.9648 
576 576 4 -1.05 -34.8582 -54.3528 -5.15186 
577 577 4 -1.05 -34.8137 -54.1716 -2.22138 
578 578 4 -1.05 -34.9052 -54.36 0.733386 
579 579 4 -1.05 -35.5968 -41.4937 -5.21476 
580 580 4 -1.05 -35.328 -41.4678 -2.32217 
581 581 4 -1.05 -35.4737 -41.6669 0.656067 
582 582 4 -1.05 -32.8563 -55.6587 -3.54334 
583 583 4 -1.05 -32.9632 -55.6314 -0.959856 
584 584 4 -1.05 -32.9668 -55.5594 1.9612 
585 585 4 -1.05 -33.9086 -39.7945 -3.57258 
586 586 4 -1.05 -33.8056 -39.8838 -1.02629 
587 587 4 -1.05 -33.7391 -39.704 1.90243 
588 588 4 -1.05 -30.7007 -56.6255 -5.19276 
589 589 4 -1.05 -30.8648 -56.5381 -2.24533 
590 590 4 -1.05 -30.7222 -56.5323 0.670326 
591 591 4 -1.05 -31.9403 -38.3625 -5.26175 
592 592 4 -1.05 -31.739 -38.4743 -2.25563 
593 593 4 -1.05 -31.9843 -38.3439 0.623829 
594 594 4 -1.05 -28.4049 -57.2315 -3.58493 
595 595 4 -1.05 -28.4306 -57.2026 -0.956326 
596 596 4 -1.05 -28.5628 -57.1328 1.93359 
597 597 4 -1.05 -29.8313 -37.3779 -3.51788 
598 598 4 -1.05 -29.8529 -37.2399 -1.0024 
599 599 4 -1.05 -29.8148 -37.4054 1.94257 
600 600 4 -1.05 -26.1243 -57.3452 -5.18487 
601 601 4 -1.05 -26.2224 -57.4701 -2.23351 
602 602 4 -1.05 -26.1351 -57.602 0.694941 
603 603 4 -1.05 -27.5694 -36.9829 -5.27634 
604 604 4 -1.05 -27.4747 -36.9255 -2.366 
605 605 4 -1.05 -27.6678 -36.9032 0.686393 
606 606 4 -1.05 -23.7825 -57.4385 -3.41571 
607 607 4 -1.05 -23.7492 -57.3895 -0.965785 
608 608 4 -1.05 -23.91 -57.3235 1.88527 
609 609 4 -1.05 -25.3087 -36.9466 -3.66745 
610 610 4 -1.05 -25.257 -36.9891 -1.10151 
611 611 4 -1.05 -25.1654 -37.1151 1.88413 
612 612 4 -1.05 -21.6028 -56.8362 -5.20545 
613 613 4 -1.05 -21.5598 -56.7799 -2.24414 
614 614 4 -1.05 -21.4951 -56.7217 0.650773 
615 615 4 -1.05 -23.0207 -37.7658 -5.29474 
616 616 4 -1.05 -23.0704 -37.8504 -2.39432 
617 617 4 -1.05 -22.9505 -37.5986 0.585121 
618 618 4 -1.05 -19.564 -55.5961 -3.57526 
619 619 4 -1.05 -19.2703 -55.751 -1.02553 
620 620 4 -1.05 -19.8645 -55.4114 2.08759 
621 621 4 -1.05 -20.9314 -38.8604 -3.60666 
622 622 4 -1.05 -21.1392 -38.8698 -1.07941 
623 623 4 -1.05 -20.8935 -39.0437 1.90178 
624 624 4 -1.05 -18.0948 -53.7055 -5.35304 
625 625 4 -1.05 -18.1957 -53.9053 -2.34523 
626 626 4 -1.05 -17.939 -53.785 0.565965 
627 627 4 -1.05 -19.0697 -40.3672 -5.30774 
628 628 4 -1.05 -19.0745 -40.4457 -2.30015 
629 629 4 -1.05 -19.1987 -40.4096 0.574167 
630 630 4 -1.05 -17.4001 -51.6191 -3.69262 
631 631 4 -1.05 -17.3115 -51.625 -1.15754 
632 632 4 -1.05 -17.1757 -51.7308 1.74604 
633 633 4 -1.05 -17.7387 -42.1984 -3.62701 
634 634 4 -1.05 -17.787 -42.2478 -1.05335 
635 635 4 -1.05 -17.9166 -42.435 1.92679 
636 636 4 -1.05 -17.1251 -49.2779 -5.37581 
637 637 4 -1.05 -17.3283 -49.3539 -2.41372 
638 638 4 -1.05 -17.092 -49.2587 0.501842 
639 639 4 -1.05 -17.1788 -44.4989 -5.29507 
640 640 4 -1.05 -17.3431 -44.7512 -2.43694 
641 641 4 -1.05 -17.4159 -44.5307 0.613132 
642 642 4 -1.05 -17.0543 -46.9369 -3.70197 
643 643 4 -1.05 -17.1847 -46.9288 -1.11501 
644 644 4 -1.05 -17.1381 -47.0596 1.88495 
645 645 5 -0.95 -35.3342 -48.1385 -2.21855 
646 646 5 -0.95 -34.9511 -50.1766 2.10379 
647 647 5 -0.95 -35.4706 -46.2938 2.04506 
648 648 5 -0.95 -34.2186 -51.6968 -2.37011 
649 649 5 -0.95 -34.9249 -44.7801 -2.16249 
650 650 5 -0.95 -33.1178 -52.9441 1.83672 
651 651 5 -0.95 -34.2042 -43.4561 2.19522 
652 652 5 -0.95 -31.4863 -53.9846 -2.23489 
653 653 5 -0.95 -32.728 -41.7048 -2.39827 
654 654 5 -0.95 -29.484 -54.7205 2.02999 
655 655 5 -0.95 -31.2158 -40.5167 1.96567 
656 656 5 -0.95 -27.382 -55.1953 -2.23353 
657 657 5 -0.95 -29.381 -39.5133 -2.23091 
658 658 5 -0.95 -25.533 -55.3265 1.87861 
659 659 5 -0.95 -27.9166 -39.234 1.86528 
660 660 5 -0.95 -23.4475 -55.1157 -2.37037 
661 661 5 -0.95 -26.0367 -39.1495 -2.43418 
662 662 5 -0.95 -22.1696 -54.5523 2.0346 
663 663 5 -0.95 -24.3806 -39.4805 1.65429 
664 664 5 -0.95 -20.8624 -53.9402 -2.15112 
665 665 5 -0.95 -22.5768 -40.467 -2.4654 
666 666 5 -0.95 -19.72 -52.1577 1.72788 
667 667 5 -0.95 -20.9548 -41.6649 1.95536 
668 668 5 -0.95 -19.482 -50.7273 -2.29274 
669 669 5 -0.95 -19.937 -42.8772 -2.38291 
670 670 5 -0.95 -19.2599 -48.7111 1.79896 
671 671 5 -0.95 -19.5654 -44.3569 2.1872 
672 672 5 -0.95 -19.3147 -46.384 -2.5906 
673 673 6 -0.95 -39.5165 -50.1586 -3.78465 
674 674 6 -0.95 -39.8697 -47.1831 0.378953 
675 675 6 -0.95 -38.4916 -52.7843 0.598247 
676 676 6 -0.95 -39.2626 -44.4321 -3.6664 
677 677 6 -0.95 -36.9291 -55.1853 -3.69085 